
                                 *****************
                                 * O   R   C   A *
                                 *****************

                                            #,                                       
                                            ###                                      
                                            ####                                     
                                            #####                                    
                                            ######                                   
                                           ########,                                 
                                     ,,################,,,,,                         
                               ,,#################################,,                 
                          ,,##########################################,,             
                       ,#########################################, ''#####,          
                    ,#############################################,,   '####,        
                  ,##################################################,,,,####,       
                ,###########''''           ''''###############################       
              ,#####''   ,,,,##########,,,,          '''####'''          '####       
            ,##' ,,,,###########################,,,                        '##       
           ' ,,###''''                  '''############,,,                           
         ,,##''                                '''############,,,,        ,,,,,,###''
      ,#''                                            '''#######################'''  
     '                                                          ''''####''''         
             ,#######,   #######,   ,#######,      ##                                
            ,#'     '#,  ##    ##  ,#'     '#,    #''#        ,####,    ,#,          
            ##       ##  ##   ,#'  ##            #'  '#       #'       ,# #          
            ##       ##  #######   ##           ,######,      #####,      #          
            '#,     ,#'  ##    ##  '#,     ,#' ,#      #,     #,   #      #          
             '#######'   ##     ##  '#######'  #'      '#     '####' #    #          



                #########################################################
                #                        -***-                          #
                #          Department of theory and spectroscopy        #
                #                                                       #
                #                      Frank Neese                      #
                #                                                       #
                #     Directorship, Architecture, Infrastructure        #
                #                    SHARK, DRIVERS                     #
                #        Core code/Algorithms in most modules           #
                #                                                       #
                #        Max Planck Institute fuer Kohlenforschung      #
                #                Kaiser Wilhelm Platz 1                 #
                #                 D-45470 Muelheim/Ruhr                 #
                #                      Germany                          #
                #                                                       #
                #                  All rights reserved                  #
                #                        -***-                          #
                #########################################################


                         Program Version 6.1.0  -  RELEASE   -
                                (GIT: $679e74b$)
                          ($2025-06-10 18:02:51 +0200$)


 With contributions from (in alphabetic order):
[Max-Planck-Institut fuer Kohlenforschung]                               
  Daniel Aravena         : Magnetic Suceptibility                        
  Michael Atanasov       : Ab Initio Ligand Field Theory (pilot matlab implementation)
  Alexander A. Auer      : GIAO ZORA, VPT2 properties, NMR spectrum      
  Ute Becker             : All parallelization in ORCA, NUMFREQ, NUMCALC 
  Giovanni Bistoni       : ED, misc. LED, open-shell LED, HFLD           
  Dmytro Bykov           : pre 5.0 version of the SCF Hessian            
  Marcos Casanova-Páez   : Triplet and SCS-CIS(D). UHF-(DLPNO)-IP/EA/STEOM-CCSD. UHF-CVS-IP/STEOM-CCSD   
  Vijay G. Chilkuri      : MRCI spin determinant printing, contributions to CSF-ICE 
  Pauline Colinet        : FMM embedding                                 
  Dipayan Datta          : RHF DLPNO-CCSD density                        
  Achintya Kumar Dutta   : EOM-CC, STEOM-CC                              
  Nicolas Foglia         : Exact transition moments, OPA infrastructure, MCD improvements    
  Dmitry Ganyushin       : Spin-Orbit,Spin-Spin,Magnetic field MRCI      
  Miquel Garcia-Rates    : C-PCM and meta-GGA Hessian, CCSD/C-PCM, Gaussian charge scheme 
  Tiago L. C. Gouveia    : GS-ROHF, GS-ROCIS                             
  Yang Guo               : DLPNO-NEVPT2, F12-NEVPT2, CIM, IAO-localization        
  Andreas Hansen         : Spin unrestricted coupled pair/coupled cluster methods 
  Ingolf Harden          : AUTO-CI MPn and infrastructure                
  Benjamin Helmich-Paris : MC-RPA, TRAH-(SCF,CASSCF), AVAS, COSX integrals, SCF dyn. polar., MC-PDFT, srDFT 
  Lee Huntington         : MR-EOM, pCC                                   
  Robert Izsak           : Overlap fitted RIJCOSX, COSX-SCS-MP3, EOM     
  Riya Kayal             : Wick's Theorem for AUTO-CI, AUTO-CI UHF-CCSDT 
  Emily Kempfer          : AUTO-CI RHF CISDT and CCSDT, approximate NEVPT4
  Christian Kollmar      : KDIIS, OOCD, Brueckner-CCSD(T), CCSD density, CASPT2, CASPT2-K, improved NEVPT2 
  Axel Koslowski         : Symmetry handling                             
  Simone Kossmann        : meta-GGA functionals, TD-DFT gradient, OOMP2, (MP2 Hessian; deprecated post 5.0) 
  Lucas Lang             : DCDCAS, Hyperfine gauge corrections, ICE-SOC+SSC
  Marvin Lechner         : AUTO-CI (C++ implementation), FIC-MRCC        
  Spencer Leger          : CASSCF response                               
  Dagmar Lenk            : GEPOL surface, SMD, ORCA-2-JSON               
  Dimitrios Liakos       : Extrapolation schemes; Compound Job, Property file
  Dimitrios Manganas     : Further ROCIS development; embedding schemes. LFT, Crystal Embedding 
  Dimitrios Pantazis     : SARC Basis sets                               
  Anastasios Papadopoulos: AUTO-CI, single reference methods and gradients 
  Taras Petrenko         : pre 6.0 DFT Hessian and TD-DFT gradient,  ECA, NRVS 
  Petra Pikulova         : Analytic Raman intensities                    
  Peter Pinski           : DLPNO-MP2, DLPNO-MP2 Gradient                 
  Shashank Vittal Rao    : ES-AILFT, MagRelax                            
  Christoph Reimann      : Effective Core Potentials                     
  Marius Retegan         : Local ZFS, SOC                                
  Christoph Riplinger    : Optimizer, TS searches, QM/MM, DLPNO-CCSD(T), (RO)-DLPNO pert. Triples 
  Michael Roemelt        : Original ROCIS implementation, recursive CI coupling coefficients
  Masaaki Saitow         : Open-shell DLPNO-CCSD energy and density      
  Barbara Sandhoefer     : DKH picture change effects                    
  Yorick L. A. Schmerwitz: GMF and freeze-and-release deltaSCF, NEB S-IDPP initial path                    
  Kantharuban Sivalingam : CASSCF convergence/infrastructure, NEVPT2, NEVPT3, NEVPT4(SD), FIC-MRCI and CEPA variants
  Bernardo de Souza      : ESD, SOC TD-DFT                               
  Georgi L. Stoychev     : AutoAux, RI-MP2 NMR, DLPNO-MP2 response, X2C  
  Van Anh Tran           : RI-MP2 g-tensors                              
  Willem Van den Heuvel  : Paramagnetic NMR                              
  Zikuan Wang            : NOTCH, Electric field optimization            
  Frank Wennmohs         : Technical directorship and infrastructure     
  Hang Xu                : AUTO-CI-Response properties                   
                                                                         
[FACCTs GmbH]                                                            
  Markus Bursch, Nicolas Foglia, Miquel Garcia-Rates, Ingolf Harden, Hagen Neugebauer, Anastasios Papadopoulos, 
  Christoph Riplinger, Bernardo de Souza, Georgi L. Stoychev                                                    
                                                                 
  APM, various basis sets, CI-OPT, improved COSX, DLPNO-Multilevel,           
  DOCKER, DRACO, updates on ESD, Fragmentator, GOAT, IRC, LR-CPCM, L-BFGS, MBIS, meta-GGA TD-DFT gradient, ML-optimized integration grids, 
  MM, NACMEs, nearIR, NEB, NEB-TS, NL-DFT gradient (VV10), 2- and 3-layer-ONIOM, interface openCOSMO-RS, QMMM,   
  Crystal-QMMM, RESP, rigid body optimization, SF, symmetry and pop. for TD-DFT, various functionals, SOLVATOR                                   
                                                                         
[Other institutions]                                                     
  V. Asgeirsson          : NEB                                           
  Christoph Bannwarth    : sTDA-DFT, sTD-DFT, PBEh-3c, B97-3c, D3        
  Giovanni Bistoni       : ETS/NOCV, ADLD/ADEX, COVALED                  
  Martin Brehm           : Molecular dynamics                            
  Ronald Cardenas        : ETS/NOCV                                      
  Martina Colucci        : COVALED                                       
  Sebastian Ehlert       : rSCAN, r2SCAN, r2SCAN-3c, D4, dhf basis sets  
  Marvin Friede          : D4 for Fr, Ra, Ac-Lr                          
  Lars Goerigk           : TD-DFT with DH, B97 family of functionals     
  Stefan Grimme          : VdW corrections, initial TS optimization, DFT functionals, gCP, sTDA/sTD-DF 
  Waldemar Hujo          : DFT-NL                                        
  H. Jonsson             : NEB                                           
  Holger Kruse           : gCP                                           
  Marcel Mueller         : wB97X-3c, vDZP basis set                      
  Hagen Neugebauer       : wr2SCAN, Native XTB                           
  Gianluca Regni         : ADLD/ADEX                                     
  Tobias Risthaus        : pre 6.0 range-separated hybrid DFT and stability analysis
  Lukas Wittmann         : regularized MP2, r2SCAN double-hybrids, wr2SCAN        
                                                                         
We gratefully acknowledge several colleagues who have allowed us to      
interface, adapt or use parts of their codes:                            
  Ed Valeev, F. Pavosevic, A. Kumar             : LibInt (2-el integral package), F12 methods 
  Garnet Chan, S. Sharma, J. Yang, R. Olivares  : DMRG                   
  Ulf Ekstrom                                   : XCFun DFT Library      
  Mihaly Kallay                                 : mrcc  (arbitrary order and MRCC methods)
  Frank Weinhold                                : gennbo (NPA and NBO analysis)           
  Simon Mueller                                 : openCOSMO-RS                            
  Christopher J. Cramer and Donald G. Truhlar   : smd solvation model                     
  S Lehtola, MJT Oliveira, MAL Marques          : LibXC Library                           
  Liviu Ungur et al                             : ANISO software                          


 Your calculation uses the libint2 library for the computation of 2-el integrals
 For citations please refer to: http://libint.valeyev.net

 Your ORCA version has been built with support for libXC version: 7.0.0
 For citations please refer to: https://libxc.gitlab.io

 This ORCA versions uses:
   CBLAS   interface :  Fast vector & matrix operations
   LAPACKE interface :  Fast linear algebra routines
   SCALAPACK package :  Parallel linear algebra routines
   Shared memory     :  Shared parallel matrices
   BLAS/LAPACK       :  OpenBLAS 0.3.29  USE64BITINT DYNAMIC_ARCH NO_AFFINITY Haswell SINGLE_THREADED
        Core in use  :  Haswell
   Copyright (c) 2011-2014, The OpenBLAS Project


  ***********************************
  * Starting time: Tue Mar 24 01:17:48 2026
  * Host name:     DESKTOP-3NRPUAP
  * Process ID:    28255
  * Working dir.:  /mnt/d/POSTDOC/for-mimi/zn-dock/v2
  ***********************************

Your calculation utilizes the semiempirical GFN2-xTB method
Please cite in your paper:
Bannwarth, C.; Ehlert S.; Grimme, S. J. Chem. Theory Comput. 2019, 15, 1652.
   

================================================================================

================================================================================
                                        WARNINGS
                       Please study these warnings very carefully!
================================================================================


WARNING: DOCKER requires XTB acc parameter to be at most 0.2!
  ===> : setting XTBACC to 0.2!

WARNING: Found dipole moment calculation with XTB calculation
  ===> : Switching off dipole moment calculation


================================================================================
                                       INPUT FILE
================================================================================
NAME = D5.inp
|  1> !GFN2-XTB
|  2> 
|  3> %DOCKER 
|  4> 	GUEST "zn.xyz" 
|  5> 	DOCKLEVEL complete
|  6> 	ALLOWMETALCOORD true
|  7> END
|  8> 
|  9> * xyz 0 1
| 10> C          0.36559        1.09696       -2.28404
| 11> C          1.71646        1.69096       -2.64970
| 12> C          2.82808        1.14833       -1.75195
| 13> C          4.18574        1.74510       -2.12541
| 14> C          5.29040        1.23136       -1.20448
| 15> C          6.64745        1.83383       -1.56086
| 16> O          7.60471        1.34831       -0.60926
| 17> C          8.51109        2.31135       -0.24573
| 18> C          9.36629        2.96062       -1.14985
| 19> O          9.28310        2.60697       -2.47064
| 20> C         10.52539        2.60583       -3.17772
| 21> C         10.34375        1.76530       -4.42907
| 22> C         10.22145        3.96225       -0.68100
| 23> C         10.25282        4.26789        0.68493
| 24> C         11.09522        5.36475        1.19770
| 25> N         11.84031        6.08309        0.42004
| 26> N         12.49745        7.10480        1.03774
| 27> C         13.33680        7.93986        0.32417
| 28> C         13.84225        9.07530        1.13954
| 29> C         12.98864        9.85196        1.82734
| 30> C         13.34101       10.99776        2.68500
| 31> C         12.31928       11.58166        3.45691
| 32> C         12.60553       12.65378        4.29722
| 33> O         11.64383       13.24583        5.06915
| 34> C         13.89830       13.15753        4.37763
| 35> C         14.91748       12.60862        3.61742
| 36> C         14.63808       11.53120        2.76930
| 37> O         14.17354       14.20365        5.20935
| 38> O         13.71370        7.80013       -0.83248
| 39> C          9.45106        3.56898        1.59109
| 40> C          8.58313        2.58535        1.12184
| 41> H         -0.41528        1.50162       -2.93549
| 42> H          0.10027        1.33325       -1.24859
| 43> H          0.37237        0.00821       -2.39743
| 44> H          1.66493        2.78233       -2.55960
| 45> H          1.93867        1.46203       -3.69840
| 46> H          2.87132        0.05576       -1.83778
| 47> H          2.59925        1.38131       -0.70478
| 48> H          4.13478        2.83893       -2.06083
| 49> H          4.42596        1.49353       -3.16546
| 50> H          5.35343        0.13730       -1.25608
| 51> H          5.05212        1.47017       -0.16023
| 52> H          6.57119        2.92946       -1.54826
| 53> H          6.94735        1.50638       -2.56249
| 54> H         11.32604        2.17035       -2.56727
| 55> H         10.79079        3.62881       -3.46548
| 56> H         10.04328        0.74514       -4.16725
| 57> H         11.26972        1.72307       -5.00923
| 58> H          9.54953        2.17887       -5.05939
| 59> H         10.84727        4.52807       -1.36573
| 60> H         11.04084        5.55758        2.28470
| 61> H         12.35074        7.26277        2.02747
| 62> H         14.91020        9.23671        1.07925
| 63> H         11.92155        9.64322        1.75878
| 64> H         11.30641       11.19361        3.40301
| 65> H         10.79060       12.82019        4.87792
| 66> H         15.92281       13.01433        3.68120
| 67> H         15.45588       11.12615        2.17957
| 68> H         13.31661       14.41649        5.62973
| 69> H          9.47675        3.79054        2.65431
| 70> H          7.94258        2.04461        1.81371
| 71> **                         ****END OF INPUT****
================================================================================

                               ***************
                               * ORCA Docker *
                               ***************

Reading guests from file             zn.xyz
Number of structures read from file  1
Charge and multiplicity of guest     from file
Docking approach                     independent
Docking level                        complete
Optimizing host                      .... -92.837320 Eh
Calculating guest energy             .... 1.745076 Eh

Starting Docker
---------------
Guest structure                      .... structure number 1
Guest charge and multiplicity        .... (2 , 1)
Final charge and multiplicity        .... (2 , 1)
PES used for swarm intelligence      .... CDP
Setting random seed                  .... done
Creating spatial grid
   Grid Center (x,y,z)               1.296, -0.224, -0.117 Angs
   Grid Max Dimension                26.00 Angs
   Angular Grid Step                 6.92 degrees
   Cartesian Grid Step               0.50 Angs
   Cartesian points per Dimension    52 points
   Angular points per Dimension      52 points
Initializing workers
   Population Density                5.00 worker/Ang^2
   Population Size                   2452
Swarm intelligence search
   Minimization Algorithm            mutant particle swarm
   Min, Max Iterations               (8 , 24) 

   Iter   Emin          avDE         stdDE            Time
          (Eh)       (kcal/mol)    (kcal/mol)        (min)
   -------------------------------------------------------

       1 -19.465929     >100          ***             0.01
       2 -19.465929     >100          ***             0.01
       3 -19.465929     >100          ***             0.01
       4 -19.465929     >100          ***             0.01
       5 -19.465929     >100          ***             0.01
       6 -19.465929     >100          ***             0.01
       7 -19.465929     >100          ***             0.01
       8 -19.465929     >100          ***             0.01
No new minimum found after 8 (SwarmMinIter) steps.

Total time for swarm intelligence 0.09 minutes

Running preoptimization
   Maximum number of structures      784
   Optimization level                sloppy
   Coordinate system                 Cartesian
   Potential energy surface          GFN-FF
   Fixed host                        false

   1   2   3   4   5   6   7   8   9  10  11  12  13  14  15
  16  17  18  19  20  21  22  23  24  25  26  27  28  29  30
  31  32  33  34  35  36  37  38  39  40  41  42  43  44  45
  46  47  48  49  50  51  52  53  54  55  56  57  58  59  60
  61  62  63  64  65  66  67  68  69  70  71  72  73  74  75
  76  77  78  79  80  81  82  83  84  85  86  87  88  89  90
  91  92  93  94  95  96  97  98  99 100 101 102 103 104 105
 106 107 108 109 110 111 112 113 114 115 116 117 118 119 120
 121 122 123 124 125 126 127 128 129 130 131 132 133 134 135
 136 137 138 139 140 141 142 143 144 145 146 147 148 149 150
 151 152 153 154 155 156 157 158 159 160 161 162 163 164 165
 166 167 168 169 170 171 172 173 174 175 176 177 178 179 180
 181 182 183 184 185 186 187 188 189 190 191 192 193 194 195
 196 197 198 199 200 201 202 203 204 205 206 207 208 209 210
 211 212 213 214 215 216 217 218 219 220 221 222 223 224 225
 226 227 228 229 230 231 232 233 234 235 236 237 238 239 240
 241 242 243 244 245 246 247 248 249 250 251 252 253 254 255
 256 257 258 259 260 261 262 263 264 265 266 267 268 269 270
 271 272 273 274 275 276 277 278 279 280 281 282 283 284 285
 286 287 288 289 290 291 292 293 294 295 296 297 298 299 300
 301 302 303 304 305 306 307 308 309 310 311 312 313 314 315
 316 317 318 319 320 321 322 323 324 325 326 327 328 329 330
 331 332 333 334 335 336 337 338 339 340 341 342 343 344 345
 346 347 348 349 350 351 352 353 354 355 356 357 358 359 360
 361 362 363 364 365 366 367 368 369 370 371 372 373 374 375
 376 377 378 379 380 381 382 383 384 385 386 387 388 389 390
 391 392 393 394 395 396 397 398 399 400 401 402 403 404 405
 406 407 408 409 410 411 412 413 414 415 416 417 418 419 420
 421 422 423 424 425 426 427 428 429 430 431 432 433 434 435
 436 437 438 439 440 441 442 443 444 445 446 447 448 449 450
 451 452 453 454 455 456 457 458 459 460 461 462 463 464 465
 466 467 468 469 470 471 472 473 474 475 476 477 478 479 480
 481 482 483 484 485 486 487 488 489 490 491 492 493 494 495
 496 497 498 499 500 501 502 503 504 505 506 507 508 509 510
 511 512 513 514 515 516 517 518 519 520 521 522 523 524 525
 526 527 528 529 530 531 532 533 534 535 536 537 538 539 540
 541 542 543 544 545 546 547 548 549 550 551 552 553 554 555
 556 557 558 559 560 561 562 563 564 565 566 567 568 569 570
 571 572 573 574 575 576 577 578 579 580 581 582 583 584 585
 586 587 588 589 590 591 592 593 594 595 596 597 598 599 600
 601 602 603 604 605 606 607 608 609 610 611 612 613 614 615
 616 617 618 619 620 621 622 623 624 625 626 627 628 629 630
 631 632 633 634 635 636 637 638 639 640 641 642 643 644 645
 646 647 648 649 650 651 652 653 654 655 656 657 658 659 660
 661 662 663 664 665 666 667 668 669 670 671 672 673 674 675
 676 677 678 679 680 681 682 683 684 685 686 687 688 689 690
 691 692 693 694 695 696 697 698 699 700 701 702 703 704 705
 706 707 708 709 710 711 712 713 714 715 716 717 718 719 720
 721 722 723 724 725 726 727 728 729 730 731 732 733 734 735
 736 737 738 739 740 741 742 743 744 745 746 747 748 749 750
 751 752 753 754 755 756 757 758 759 760 761 762 763 764 765
 766 767 768 769 770 771 772 773 774 775 776 777 778 779 780
 781 782 783 784

Time for 784 geometry preoptimizations :     152.51 minutes
All preoptimized structures saved to:      D5.docker.struc1.all.preoptimized.xyz

Running final optimization
   Maximum number of structures      49
   Minimum energy difference         10.00 kcal/mol
   Average RMSD                      0.34 Angs
   Optimization level                normal
   Coordinate system                 auto
   Potential energy surface          same as input
   Fixed host                        false
   Add final bias potential          false

   Struc   Eopt       Interaction Energy       Time
           (Eh)               (kcal/mol)      (min)
   ------------------------------------------------

    1      -92.521674         -896.980940       0.68
    2      -92.521666         -896.976246       0.43
    3      -92.521684         -896.987242       0.62
    4      -92.521683         -896.986879       0.47
    5      -92.521682         -896.985950       0.43
    6      -92.521684         -896.987402       0.54
    7      -92.521679         -896.984204       0.63
    8      -92.520637         -896.330627       0.66
    9      -92.521684         -896.987447       0.51

Time for   9 geometry optimizations:       5.01 minutes
All optimized structures saved to  :      D5.docker.struc1.all.optimized.xyz

-------------------------------------
LOWEST INTERACTION ENERGY: -896.987447 kcal/mol (structure 9)
-------------------------------------

Total time for docking:     157.65 minutes

The lowest energy structure was 1, with energy -92.521684.
Docked structures saved to    D5.docker.xyz

                ****ORCA-DOCKER TERMINATED NORMALLY****

--------------------------------
SUGGESTED CITATIONS FOR THIS RUN
--------------------------------

Below you find a list of papers that are relevant to this ORCA run
We neither can nor want to force you to cite these papers, but we appreciate if you do
You receive ORCA, which is the product of decades of hard work by many enthusiastic individuals, for free
The only thing we kindly ask in return is that you cite our papers,
We deeply appreciate it, if you show your appreciation for ORCA by not just citing the generic ORCA reference.

Please note that relegating all ORCA citations to the supporting information does *not* help us.
SI sections are not indexed - citations you put there will not count into any citation statistics
But we need these citations in order to attract the funding resources that allow us to do what we are doing

Therefore, if you are a happy ORCA user, please consider citing a few of the papers listed below in the main body of your paper

In addition to the list printed below, the program has created the file D5.bibtex that contains the list in bibtex format
You can import this file easily into all common literature databanks and citation aid programs


List of essential papers. We consider these as the minimum necessary citations

  1. Bannwarth, C.; Ehlert, S.; Grimme, S.
     GFN2-xTB—An Accurate and Broadly Parametrized Self-Consistent Tight-Binding Quantum Chemical Method with Multipole Electrostatics and Density-Dependent Dispersion Contributions
     J. Chem. Theory Comput. 2019 15(3), 1652-1671
     doi.org/10.1021/acs.jctc.8b01176
  2. Neese, F.
     Software update: the ORCA program system, version 6.0
     WIRES Comput. Molec. Sci. 2025 15(1), e70019
     doi.org/10.1002/wcms.7019

List of papers to cite with high priority. The work reported in these papers was absolutely
necessary for this run to complete.
Our perspective: the developers of density functionals and basis sets usually get cited in chemistry papers
Good! But without the algorithms to do something with them, the functionals or basis sets would not do anything.
Hence, in our opinion, the algorithm design and method developments papers are equally worthy of getting cited

  1. Bannwarth, C.; Caldeweyher, E.; Ehlert, S.; Hansen, A.; Pracht, P.; Seibert, J.; Spicher, S.; Grimme, S.
     Extended tight-binding quantum chemistry methods
     WIRES Comput. Molec. Sci. 2020 11(2), e1493
     doi.org/10.1002/wcms.1493

List of suggested additional citations. These are papers that are important in the 'surrounding' of 
of this run, or papers that preceded the highly important papers. If you like your results we are grateful for a citation.

  1. Neese, F.
     The ORCA program system
     WIRES Comput. Molec. Sci. 2012 2(1), 73-78
     doi.org/10.1002/wcms.81
  2. Neese, F.
     Software update: the ORCA program system, version 4.0
     WIRES Comput. Molec. Sci. 2018 8(1), 1-6
     doi.org/10.1002/wcms.1327
  3. Neese, F.; Wennmohs, F.; Becker, U.; Riplinger, C.
     The ORCA quantum chemistry program package
     J. Chem. Phys. 2020 152(22), 224108
     doi.org/10.1063/5.0004608
  4. Neese, F.
     Software update: The ORCA program system—Version 5.0
     WIRES Comput. Molec. Sci. 2022 12(1), e1606
     doi.org/10.1002/wcms.1606

List of optional additional citations

  1. Neese, F.
     Approximate second-order SCF convergence for spin unrestricted wavefunctions
     Chem. Phys. Lett. 2000 325(1-3), 93-98
     doi.org/10.1016/s0009-2614(00)00662-x

Timings for individual modules:

Sum of individual times          ...     6591.788 sec (= 109.863 min)
Geometry relaxation              ...      886.386 sec (=  14.773 min)  13.4 %
XTB module                       ...     5705.402 sec (=  95.090 min)  86.6 %
                             ****ORCA TERMINATED NORMALLY****
TOTAL RUN TIME: 0 days 2 hours 38 minutes 28 seconds 856 msec
