
                                 *****************
                                 * O   R   C   A *
                                 *****************

                                            #,                                       
                                            ###                                      
                                            ####                                     
                                            #####                                    
                                            ######                                   
                                           ########,                                 
                                     ,,################,,,,,                         
                               ,,#################################,,                 
                          ,,##########################################,,             
                       ,#########################################, ''#####,          
                    ,#############################################,,   '####,        
                  ,##################################################,,,,####,       
                ,###########''''           ''''###############################       
              ,#####''   ,,,,##########,,,,          '''####'''          '####       
            ,##' ,,,,###########################,,,                        '##       
           ' ,,###''''                  '''############,,,                           
         ,,##''                                '''############,,,,        ,,,,,,###''
      ,#''                                            '''#######################'''  
     '                                                          ''''####''''         
             ,#######,   #######,   ,#######,      ##                                
            ,#'     '#,  ##    ##  ,#'     '#,    #''#        ,####,    ,#,          
            ##       ##  ##   ,#'  ##            #'  '#       #'       ,# #          
            ##       ##  #######   ##           ,######,      #####,      #          
            '#,     ,#'  ##    ##  '#,     ,#' ,#      #,     #,   #      #          
             '#######'   ##     ##  '#######'  #'      '#     '####' #    #          



                #########################################################
                #                        -***-                          #
                #          Department of theory and spectroscopy        #
                #                                                       #
                #                      Frank Neese                      #
                #                                                       #
                #     Directorship, Architecture, Infrastructure        #
                #                    SHARK, DRIVERS                     #
                #        Core code/Algorithms in most modules           #
                #                                                       #
                #        Max Planck Institute fuer Kohlenforschung      #
                #                Kaiser Wilhelm Platz 1                 #
                #                 D-45470 Muelheim/Ruhr                 #
                #                      Germany                          #
                #                                                       #
                #                  All rights reserved                  #
                #                        -***-                          #
                #########################################################


                         Program Version 6.1.0  -  RELEASE   -
                                (GIT: $679e74b$)
                          ($2025-06-10 18:02:51 +0200$)


 With contributions from (in alphabetic order):
[Max-Planck-Institut fuer Kohlenforschung]                               
  Daniel Aravena         : Magnetic Suceptibility                        
  Michael Atanasov       : Ab Initio Ligand Field Theory (pilot matlab implementation)
  Alexander A. Auer      : GIAO ZORA, VPT2 properties, NMR spectrum      
  Ute Becker             : All parallelization in ORCA, NUMFREQ, NUMCALC 
  Giovanni Bistoni       : ED, misc. LED, open-shell LED, HFLD           
  Dmytro Bykov           : pre 5.0 version of the SCF Hessian            
  Marcos Casanova-Páez   : Triplet and SCS-CIS(D). UHF-(DLPNO)-IP/EA/STEOM-CCSD. UHF-CVS-IP/STEOM-CCSD   
  Vijay G. Chilkuri      : MRCI spin determinant printing, contributions to CSF-ICE 
  Pauline Colinet        : FMM embedding                                 
  Dipayan Datta          : RHF DLPNO-CCSD density                        
  Achintya Kumar Dutta   : EOM-CC, STEOM-CC                              
  Nicolas Foglia         : Exact transition moments, OPA infrastructure, MCD improvements    
  Dmitry Ganyushin       : Spin-Orbit,Spin-Spin,Magnetic field MRCI      
  Miquel Garcia-Rates    : C-PCM and meta-GGA Hessian, CCSD/C-PCM, Gaussian charge scheme 
  Tiago L. C. Gouveia    : GS-ROHF, GS-ROCIS                             
  Yang Guo               : DLPNO-NEVPT2, F12-NEVPT2, CIM, IAO-localization        
  Andreas Hansen         : Spin unrestricted coupled pair/coupled cluster methods 
  Ingolf Harden          : AUTO-CI MPn and infrastructure                
  Benjamin Helmich-Paris : MC-RPA, TRAH-(SCF,CASSCF), AVAS, COSX integrals, SCF dyn. polar., MC-PDFT, srDFT 
  Lee Huntington         : MR-EOM, pCC                                   
  Robert Izsak           : Overlap fitted RIJCOSX, COSX-SCS-MP3, EOM     
  Riya Kayal             : Wick's Theorem for AUTO-CI, AUTO-CI UHF-CCSDT 
  Emily Kempfer          : AUTO-CI RHF CISDT and CCSDT, approximate NEVPT4
  Christian Kollmar      : KDIIS, OOCD, Brueckner-CCSD(T), CCSD density, CASPT2, CASPT2-K, improved NEVPT2 
  Axel Koslowski         : Symmetry handling                             
  Simone Kossmann        : meta-GGA functionals, TD-DFT gradient, OOMP2, (MP2 Hessian; deprecated post 5.0) 
  Lucas Lang             : DCDCAS, Hyperfine gauge corrections, ICE-SOC+SSC
  Marvin Lechner         : AUTO-CI (C++ implementation), FIC-MRCC        
  Spencer Leger          : CASSCF response                               
  Dagmar Lenk            : GEPOL surface, SMD, ORCA-2-JSON               
  Dimitrios Liakos       : Extrapolation schemes; Compound Job, Property file
  Dimitrios Manganas     : Further ROCIS development; embedding schemes. LFT, Crystal Embedding 
  Dimitrios Pantazis     : SARC Basis sets                               
  Anastasios Papadopoulos: AUTO-CI, single reference methods and gradients 
  Taras Petrenko         : pre 6.0 DFT Hessian and TD-DFT gradient,  ECA, NRVS 
  Petra Pikulova         : Analytic Raman intensities                    
  Peter Pinski           : DLPNO-MP2, DLPNO-MP2 Gradient                 
  Shashank Vittal Rao    : ES-AILFT, MagRelax                            
  Christoph Reimann      : Effective Core Potentials                     
  Marius Retegan         : Local ZFS, SOC                                
  Christoph Riplinger    : Optimizer, TS searches, QM/MM, DLPNO-CCSD(T), (RO)-DLPNO pert. Triples 
  Michael Roemelt        : Original ROCIS implementation, recursive CI coupling coefficients
  Masaaki Saitow         : Open-shell DLPNO-CCSD energy and density      
  Barbara Sandhoefer     : DKH picture change effects                    
  Yorick L. A. Schmerwitz: GMF and freeze-and-release deltaSCF, NEB S-IDPP initial path                    
  Kantharuban Sivalingam : CASSCF convergence/infrastructure, NEVPT2, NEVPT3, NEVPT4(SD), FIC-MRCI and CEPA variants
  Bernardo de Souza      : ESD, SOC TD-DFT                               
  Georgi L. Stoychev     : AutoAux, RI-MP2 NMR, DLPNO-MP2 response, X2C  
  Van Anh Tran           : RI-MP2 g-tensors                              
  Willem Van den Heuvel  : Paramagnetic NMR                              
  Zikuan Wang            : NOTCH, Electric field optimization            
  Frank Wennmohs         : Technical directorship and infrastructure     
  Hang Xu                : AUTO-CI-Response properties                   
                                                                         
[FACCTs GmbH]                                                            
  Markus Bursch, Nicolas Foglia, Miquel Garcia-Rates, Ingolf Harden, Hagen Neugebauer, Anastasios Papadopoulos, 
  Christoph Riplinger, Bernardo de Souza, Georgi L. Stoychev                                                    
                                                                 
  APM, various basis sets, CI-OPT, improved COSX, DLPNO-Multilevel,           
  DOCKER, DRACO, updates on ESD, Fragmentator, GOAT, IRC, LR-CPCM, L-BFGS, MBIS, meta-GGA TD-DFT gradient, ML-optimized integration grids, 
  MM, NACMEs, nearIR, NEB, NEB-TS, NL-DFT gradient (VV10), 2- and 3-layer-ONIOM, interface openCOSMO-RS, QMMM,   
  Crystal-QMMM, RESP, rigid body optimization, SF, symmetry and pop. for TD-DFT, various functionals, SOLVATOR                                   
                                                                         
[Other institutions]                                                     
  V. Asgeirsson          : NEB                                           
  Christoph Bannwarth    : sTDA-DFT, sTD-DFT, PBEh-3c, B97-3c, D3        
  Giovanni Bistoni       : ETS/NOCV, ADLD/ADEX, COVALED                  
  Martin Brehm           : Molecular dynamics                            
  Ronald Cardenas        : ETS/NOCV                                      
  Martina Colucci        : COVALED                                       
  Sebastian Ehlert       : rSCAN, r2SCAN, r2SCAN-3c, D4, dhf basis sets  
  Marvin Friede          : D4 for Fr, Ra, Ac-Lr                          
  Lars Goerigk           : TD-DFT with DH, B97 family of functionals     
  Stefan Grimme          : VdW corrections, initial TS optimization, DFT functionals, gCP, sTDA/sTD-DF 
  Waldemar Hujo          : DFT-NL                                        
  H. Jonsson             : NEB                                           
  Holger Kruse           : gCP                                           
  Marcel Mueller         : wB97X-3c, vDZP basis set                      
  Hagen Neugebauer       : wr2SCAN, Native XTB                           
  Gianluca Regni         : ADLD/ADEX                                     
  Tobias Risthaus        : pre 6.0 range-separated hybrid DFT and stability analysis
  Lukas Wittmann         : regularized MP2, r2SCAN double-hybrids, wr2SCAN        
                                                                         
We gratefully acknowledge several colleagues who have allowed us to      
interface, adapt or use parts of their codes:                            
  Ed Valeev, F. Pavosevic, A. Kumar             : LibInt (2-el integral package), F12 methods 
  Garnet Chan, S. Sharma, J. Yang, R. Olivares  : DMRG                   
  Ulf Ekstrom                                   : XCFun DFT Library      
  Mihaly Kallay                                 : mrcc  (arbitrary order and MRCC methods)
  Frank Weinhold                                : gennbo (NPA and NBO analysis)           
  Simon Mueller                                 : openCOSMO-RS                            
  Christopher J. Cramer and Donald G. Truhlar   : smd solvation model                     
  S Lehtola, MJT Oliveira, MAL Marques          : LibXC Library                           
  Liviu Ungur et al                             : ANISO software                          


 Your calculation uses the libint2 library for the computation of 2-el integrals
 For citations please refer to: http://libint.valeyev.net

 Your ORCA version has been built with support for libXC version: 7.0.0
 For citations please refer to: https://libxc.gitlab.io

 This ORCA versions uses:
   CBLAS   interface :  Fast vector & matrix operations
   LAPACKE interface :  Fast linear algebra routines
   SCALAPACK package :  Parallel linear algebra routines
   Shared memory     :  Shared parallel matrices
   BLAS/LAPACK       :  OpenBLAS 0.3.29  USE64BITINT DYNAMIC_ARCH NO_AFFINITY Haswell SINGLE_THREADED
        Core in use  :  Haswell
   Copyright (c) 2011-2014, The OpenBLAS Project


  ***********************************
  * Starting time: Fri Mar 20 00:32:58 2026
  * Host name:     DESKTOP-3NRPUAP
  * Process ID:    28510
  * Working dir.:  /mnt/d/POSTDOC/for-mimi/zn-dock/tzvp/ligand-only
  ***********************************

Your calculation utilizes the atom-pairwise dispersion correction
with the Becke-Johnson damping scheme (D3BJ)


================================================================================

----- Orbital basis set information -----
Your calculation utilizes the basis: def2-TZVP
   F. Weigend and R. Ahlrichs, Phys. Chem. Chem. Phys. 7, 3297 (2005).

----- AuxJ basis set information -----
Your calculation utilizes the AutoAux generation procedure.
  G. L. Stoychev, A. A. Auer, F. Neese, J. Chem. Theory Comput. 13, 554 (2017)

----- AuxC basis set information -----
Your calculation utilizes the AutoAux generation procedure.
  G. L. Stoychev, A. A. Auer, F. Neese, J. Chem. Theory Comput. 13, 554 (2017)

----- AuxJK basis set information -----
Your calculation utilizes the AutoAux generation procedure.
  G. L. Stoychev, A. A. Auer, F. Neese, J. Chem. Theory Comput. 13, 554 (2017)

----- AuxX basis set information -----
Your calculation utilizes the AutoAux generation procedure.
  G. L. Stoychev, A. A. Auer, F. Neese, J. Chem. Theory Comput. 13, 554 (2017)

================================================================================
                                        WARNINGS
                       Please study these warnings very carefully!
================================================================================


================================================================================
                                       INPUT FILE
================================================================================
NAME = zn.inp
|  1> ! B3LYP def2-TZVP D3BJ CPCM(Water) RIJCOSX AutoAux
|  2> ! PrintMOs
|  3> 
|  4> * xyz 2 1
|  5> Zn         0.73102        0.91499        0.00000
|  6> **                         ****END OF INPUT****
================================================================================

                       ****************************
                       * Single Point Calculation *
                       ****************************

---------------------------------
CARTESIAN COORDINATES (ANGSTROEM)
---------------------------------
  Zn     0.731020    0.914990    0.000000

----------------------------
CARTESIAN COORDINATES (A.U.)
----------------------------
  NO LB      ZA    FRAG     MASS         X           Y           Z
   0 Zn   30.0000    0    65.380    1.381428    1.729081    0.000000

--------------------------------
INTERNAL COORDINATES (ANGSTROEM)
--------------------------------
 Zn     0   0   0     0.000000000000     0.00000000     0.00000000

---------------------------
INTERNAL COORDINATES (A.U.)
---------------------------
 Zn     0   0   0     0.000000000000     0.00000000     0.00000000

---------------------
BASIS SET INFORMATION
---------------------
There are 1 groups of distinct atoms

 Group   1 Type Zn  : 17s12p7d1f contracted to 6s5p4d1f pattern {842111/63111/4111/1}

Atom   0Zn   basis set group =>   1
---------------------------------
AUXILIARY/J BASIS SET INFORMATION
---------------------------------
There are 1 groups of distinct atoms

 Group   1 Type Zn  : 21s18p17d16f12g3h contracted to 21s18p17d16f12g3h pattern {111111111111111111111/111111111111111111/11111111111111111/1111111111111111/111111111111/111}

Atom   0Zn   basis set group =>   1
---------------------------------
AUXILIARY/C BASIS SET INFORMATION
---------------------------------
There are 1 groups of distinct atoms

 Group   1 Type Zn  : 21s18p17d16f12g3h contracted to 21s18p17d16f12g3h pattern {111111111111111111111/111111111111111111/11111111111111111/1111111111111111/111111111111/111}

Atom   0Zn   basis set group =>   1
----------------------------------
AUXILIARY/JK BASIS SET INFORMATION
----------------------------------
There are 1 groups of distinct atoms

 Group   1 Type Zn  : 21s18p17d16f12g3h contracted to 21s18p17d16f12g3h pattern {111111111111111111111/111111111111111111/11111111111111111/1111111111111111/111111111111/111}

Atom   0Zn   basis set group =>   1
---------------------------------
AUXILIARY/X BASIS SET INFORMATION
---------------------------------
There are 1 groups of distinct atoms

 Group   1 Type Zn  : 21s18p17d16f12g3h contracted to 21s18p17d16f12g3h pattern {111111111111111111111/111111111111111111/11111111111111111/1111111111111111/111111111111/111}

Atom   0Zn   basis set group =>   1
------------------------------------------------------------------------------
                             ORCA STARTUP CALCULATIONS
                           -- RI-GTO INTEGRALS CHOSEN --
------------------------------------------------------------------------------
------------------------------------------------------------------------------
                   ___                                                        
                  /   \      - P O W E R E D   B Y -                         
                 /     \                                                     
                 |  |  |   _    _      __       _____    __    __             
                 |  |  |  | |  | |    /  \     |  _  \  |  |  /  |          
                  \  \/   | |  | |   /    \    | | | |  |  | /  /          
                 / \  \   | |__| |  /  /\  \   | |_| |  |  |/  /          
                |  |  |   |  __  | /  /__\  \  |    /   |      \           
                |  |  |   | |  | | |   __   |  |    \   |  |\   \          
                \     /   | |  | | |  |  |  |  | |\  \  |  | \   \       
                 \___/    |_|  |_| |__|  |__|  |_| \__\ |__|  \__/        
                                                                              
                      - O R C A' S   B I G   F R I E N D -                    
                                      &                                       
                       - I N T E G R A L  F E E D E R -                       
                                                                              
 v1 FN, 2020, v2 2021, v3 2022-2024                                           
------------------------------------------------------------------------------


----------------------
SHARK INTEGRAL PACKAGE
----------------------

Number of atoms                             ...      1
Number of basis functions                   ...     48
Number of shells                            ...     16
Maximum angular momentum                    ...      3
Integral batch strategy                     ... SHARK/LIBINT Hybrid
RI-J (if used) integral strategy            ... SPLIT-RIJ (Revised 2003 algorithm where possible)
Printlevel                                  ...      1
Contraction scheme used                     ... SEGMENTED contraction
Prescreening option                         ... SCHWARTZ
   Thresh                                   ... 1.000e-10
   Tcut                                     ... 1.000e-11
   Tpresel                                  ... 1.000e-11 
Coulomb Range Separation                    ... NOT USED
Exchange Range Separation                   ... NOT USED
Multipole approximations                    ... NOT USED
Finite Nucleus Model                        ... NOT USED
CABS basis                                  ... NOT available
Auxiliary Coulomb fitting basis             ... AVAILABLE
   # of basis functions in Aux-J            ...    413
   # of shells in Aux-J                     ...     87
   Maximum angular momentum in Aux-J        ...      5
Auxiliary J/K fitting basis                 ... AVAILABLE
   # of basis functions in Aux-JK           ...    413
   # of shells in Aux-JK                    ...     87
   Maximum angular momentum in Aux-JK       ...      5
Auxiliary Correlation fitting basis         ... AVAILABLE
   # of basis functions in Aux-C            ...    413
   # of shells in Aux-C                     ...     87
   Maximum angular momentum in Aux-C        ...      5
Auxiliary 'external' fitting basis          ... NOT available

Checking pre-screening integrals            ... done (  0.0 sec) Dimension = 16
   => SHARK Basis and OBASIS are compatible. Storing Pre-screening
Shell pair information
Shell pair cut-off parameter TPreSel        ...   1.0e-11
Total number of shell pairs                 ...       136
Shell pairs after pre-screening             ...       136
Total number of primitive shell pairs       ...       762
Primitive shell pairs kept                  ...       762
          la=0 lb=0:     21 shell pairs
          la=1 lb=0:     30 shell pairs
          la=1 lb=1:     15 shell pairs
          la=2 lb=0:     24 shell pairs
          la=2 lb=1:     20 shell pairs
          la=2 lb=2:     10 shell pairs
          la=3 lb=0:      6 shell pairs
          la=3 lb=1:      5 shell pairs
          la=3 lb=2:      4 shell pairs
          la=3 lb=3:      1 shell pairs

Checking whether 4 symmetric matrices of dimension 48 fit in memory
:Max Core in MB      =   4096.00
 MB in use           =      6.13
 MB left             =   4089.87
 MB needed           =      0.04
 Data fit in memory  = YES
Calculating RI/J V-Matrix + Cholesky decomp.... done (  0.1 sec)
Calculating RI/JK V-Matrix + Cholesky decomp.... done (  0.1 sec)
Calculating RI/C V-Matrix + Cholesky decomp.... done (  0.1 sec)
Calculating Nuclear repulsion               ... done (  0.0 sec) ENN=      0.000000000000 Eh

Diagonalization of the overlap matrix:
Smallest eigenvalue                        ... 6.068e-02
Time for diagonalization                   ...    0.010 sec
Threshold for overlap eigenvalues          ... 1.000e-07
Number of eigenvalues below threshold      ... 0
Time for construction of square roots      ...    0.019 sec
Total time needed                          ...    0.058 sec

-------------------
DFT GRID GENERATION
-------------------

General Integration Accuracy     IntAcc      ... 4.388
Radial Grid Type                 RadialGrid  ... OptM3 with GC (2021)
Angular Grid (max. ang.)         AngularGrid ... 4 (Lebedev-302)
Angular grid pruning method      GridPruning ... 4 (adaptive)
Weight generation scheme         WeightScheme... mBecke (2022)
Basis function cutoff            BFCut       ... 1.0000e-10
Integration weight cutoff        WCut        ... 1.0000e-14
Partially contracted basis set               ... off
Rotationally invariant grid construction     ... off
Angular grids for H and He will be reduced by one unit
Core-polarized basis detected: some atoms will have their core
                               angular grid increased.

Total number of grid points                  ...    11336
Total number of batches                      ...      178
Average number of points per batch           ...       63
Average number of grid points per atom       ...    11336

--------------------
COSX GRID GENERATION
--------------------

GRIDX 1
-------
General Integration Accuracy     IntAcc      ... 3.816
Radial Grid Type                 RadialGrid  ... OptM3 with GC (2021)
Angular Grid (max. ang.)         AngularGrid ... 1 (Lebedev-50)
Angular grid pruning method      GridPruning ... 4 (adaptive)
Weight generation scheme         WeightScheme... mBecke (2022)
Basis function cutoff            BFCut       ... 1.0000e-10
Integration weight cutoff        WCut        ... 1.0000e-14
Partially contracted basis set               ... on
Rotationally invariant grid construction     ... off
Angular grids for H and He will be reduced by one unit
Core-polarized basis detected: some atoms will have their core
                               angular grid increased.

Total number of grid points                  ...     6274
Total number of batches                      ...       50
Average number of points per batch           ...      125
Average number of grid points per atom       ...     6274
UseSFitting                                  ... on

GRIDX 2
-------
General Integration Accuracy     IntAcc      ... 4.020
Radial Grid Type                 RadialGrid  ... OptM3 with GC (2021)
Angular Grid (max. ang.)         AngularGrid ... 2 (Lebedev-110)
Angular grid pruning method      GridPruning ... 4 (adaptive)
Weight generation scheme         WeightScheme... mBecke (2022)
Basis function cutoff            BFCut       ... 1.0000e-10
Integration weight cutoff        WCut        ... 1.0000e-14
Partially contracted basis set               ... on
Rotationally invariant grid construction     ... off
Angular grids for H and He will be reduced by one unit
Core-polarized basis detected: some atoms will have their core
                               angular grid increased.

Total number of grid points                  ...     6274
Total number of batches                      ...       50
Average number of points per batch           ...      125
Average number of grid points per atom       ...     6274
UseSFitting                                  ... on

GRIDX 3
-------
General Integration Accuracy     IntAcc      ... 4.338
Radial Grid Type                 RadialGrid  ... OptM3 with GC (2021)
Angular Grid (max. ang.)         AngularGrid ... 3 (Lebedev-194)
Angular grid pruning method      GridPruning ... 4 (adaptive)
Weight generation scheme         WeightScheme... mBecke (2022)
Basis function cutoff            BFCut       ... 1.0000e-10
Integration weight cutoff        WCut        ... 1.0000e-14
Partially contracted basis set               ... on
Rotationally invariant grid construction     ... off
Angular grids for H and He will be reduced by one unit
Core-polarized basis detected: some atoms will have their core
                               angular grid increased.

Total number of grid points                  ...     6274
Total number of batches                      ...       50
Average number of points per batch           ...      125
Average number of grid points per atom       ...     6274
UseSFitting                                  ... on
Grids setup in   0.9 sec
Initializing property integral containers    ... done (  0.0 sec)

SHARK setup successfully completed in   1.6 seconds

Maximum memory used throughout the entire STARTUP-calculation: 20.0 MB
-------------------------------------------------------------------------------
                                 ORCA GUESS
                   Start orbitals & Density for SCF / CASSCF
-------------------------------------------------------------------------------

------------
SCF SETTINGS
------------
Hamiltonian:
 Density Functional     Method          .... DFT(GTOs)
 Exchange Functional    Exchange        .... B88
   X-Alpha parameter    XAlpha          ....  0.666667
   Becke's b parameter  XBeta           ....  0.004200
 Correlation Functional Correlation     .... LYP
 LDA part of GGA corr.  LDAOpt          .... VWN-5
 Gradients option       PostSCFGGA      .... off
 Hybrid DFT is turned on
   Fraction HF Exchange ScalHFX         ....  0.200000
   Scaling of DF-GGA-X  ScalDFX         ....  0.720000
   Scaling of DF-GGA-C  ScalDFC         ....  0.810000
   Scaling of DF-LDA-C  ScalLDAC        ....  1.000000
   Perturbative correction              ....  0.000000
   NL short-range parameter             ....  4.800000
 RI-approximation to the Coulomb term is turned on
   Number of AuxJ basis functions       .... 413
   RIJ-COSX (HFX calculated with COS-X)).... on


General Settings:
 Integral files         IntName         .... zn
 Hartree-Fock type      HFTyp           .... RHF
 Total Charge           Charge          ....    2
 Multiplicity           Mult            ....    1
 Number of Electrons    NEL             ....   28
 Basis Dimension        Dim             ....   48
 Nuclear Repulsion      ENuc            ....      0.0000000000 Eh

Convergence Acceleration:
 AO-DIIS                CNVDIIS         .... on
   Start iteration      DIISMaxIt       ....    12
   Startup error        DIISStart       ....  0.200000
   # of expansion vecs  DIISMaxEq       ....     5
   Bias factor          DIISBfac        ....   1.050
   Max. coefficient     DIISMaxC        ....  10.000
 MO-DIIS                CNVKDIIS        .... off
 Trust-Rad. Augm. Hess. CNVTRAH         .... auto
   Auto Start mean grad. ratio tolernc. ....  1.125000
   Auto Start start iteration           ....    50
   Auto Start num. interpolation iter.  ....    10
   Max. Number of Micro iterations      ....    24
   Max. Number of Macro iterations      .... Maxiter - #DIIS iter
   Number of Davidson start vectors     ....     2
   Converg. threshold    (grad. norm)   ....   5.000e-05
   Grad. Scal. Fac. for Micro threshold ....   0.100
   Minimum threshold for Micro iter.    ....   1.000e-02
   NR start threshold (gradient norm)   ....   1.000e-04
   Initial trust radius                 ....   0.400
   Minimum AH scaling param. (alpha)    ....   1.000
   Maximum AH scaling param. (alpha)    .... 1000.000
   Quad. conv. algorithm                .... NR
   White noise on init. David. guess    .... on
   Maximum white noise                  ....   0.010
   Pseudo random numbers                .... off
   Inactive MOs                         .... canonical
   Orbital update algorithm             .... Taylor
   Preconditioner                       .... Diag
   Full preconditioner red. dimension   ....   250
 SOSCF                 CNVSOSCF           .... on
   Start iteration     SOSCFMaxIt         ....   150
   Startup grad/error  SOSCFStart         ....  0.003300
   Hessian update      SOSCFHessUp        .... L-BFGS
   Autom. constraints  SOSCFAutoConstrain .... off
 Level Shifting         CNVShift        .... on
   Level shift para.    LevelShift      ....    0.2500
   Turn off err/grad.   ShiftErr        ....    0.0010
 Zerner damping         CNVZerner       .... off
 Static damping         CNVDamp         .... on
   Fraction old density DampFac         ....    0.7000
   Max. Damping (<1)    DampMax         ....    0.9800
   Min. Damping (>=0)   DampMin         ....    0.0000
   Turn off err/grad.   DampErr         ....    0.1000

SCF Procedure:
 Maximum # iterations   MaxIter         ....   125
 SCF integral mode      SCFMode         .... Direct
   Integral package                     .... SHARK and LIBINT hybrid scheme
 Reset frequency        DirectResetFreq ....    20
 Integral Threshold     Thresh          ....  1.000e-10 Eh
 Primitive CutOff       TCut            ....  1.000e-11 Eh

Convergence Tolerance:
 Convergence Check Mode ConvCheckMode   .... Total+1el-Energy
 Convergence forced     ConvForced      .... 0
 Energy Change          TolE            ....  1.000e-06 Eh
 1-El. energy change                    ....  1.000e-03 Eh
 Orbital Gradient       TolG            ....  5.000e-05
 Orbital Rotation angle TolX            ....  5.000e-05
 DIIS Error             TolErr          ....  1.000e-06

------------------------------
INITIAL GUESS: MODEL POTENTIAL
------------------------------
Loading Hartree-Fock densities                     ... done
Calculating cut-offs                               ... done
Initializing the effective Hamiltonian             ... done
Setting up the integral package (SHARK)            ... done
Starting the Coulomb interaction                   ... done (   0.0 sec)
Making the grid                                    ... done (   0.2 sec)
Mapping shells                                     ... done
Starting the XC term evaluation                    ... done (   0.0 sec)
  promolecular density results
     # of electrons  =     30.000030603
     EX              =    -69.863645911
     EC              =     -1.430449804
     EX+EC           =    -71.294095715
Transforming the Hamiltonian                       ... done (   0.0 sec)
Diagonalizing the Hamiltonian                      ... done (   0.0 sec)
Back transforming the eigenvectors                 ... done (   0.0 sec)
Now organizing SCF variables                       ... done
                      ------------------
                      INITIAL GUESS DONE (   0.3 sec)
                      ------------------
             **** ENERGY FILE WAS UPDATED (zn.en.tmp) ****
Finished Guess after   0.5 sec
Maximum memory used throughout the entire GUESS-calculation: 10.4 MB

-------------------------------------------------------------------------------------------
                                      ORCA LEAN-SCF
                              memory conserving SCF solver
-------------------------------------------------------------------------------------------

--------------------
CPCM SOLVATION MODEL
--------------------
CPCM parameters:
  Epsilon                                         ...      80.1510
  Refrac                                          ...       1.3328
  Rsolv                                           ...       1.3000
  Surface type                                    ... GAUSSIAN VDW
  Discretization scheme                           ... Constant charge density
    Threshold for H atoms                         ...       5.0000 (charges/Ang^2)
    Threshold for non-H atoms                     ...       5.0000 (charges/Ang^2)
  Epsilon function type                           ...         CPCM
Solvent:                                          ... WATER
Radii:
  Scheme                                          ... Element-dependent radii
  Radius for Zn used is    3.1521 Bohr (=   1.6680 Ang.)
Calculating surface                               ...        done! (  0.0s)
Cavity surface points                             ...          194
Cavity Volume                                     ...     131.1817
Cavity Surface-area                               ...     124.8532
Calculating surface distance matrix               ...        done! (  0.0s)
Performing Cholesky decomposition & store         ...        done! (  0.0s)
Overall time for CPCM initialization              ...                 0.0s

----------------------------------------D-I-I-S--------------------------------------------
Iteration    Energy (Eh)           Delta-E    RMSDP     MaxDP     DIISErr   Damp  Time(sec)
-------------------------------------------------------------------------------------------
               ***  Starting incremental Fock matrix formation  ***
    1    -1778.8398771992367529     0.00e+00  4.00e-03  3.81e-02  3.65e-01  0.700   0.9
    2    -1778.8872979039872462    -4.74e-02  1.81e-03  1.35e-02  1.12e-01  0.700   1.5
                               ***Turning on AO-DIIS***
    3    -1778.9054390772573697    -1.81e-02  9.80e-04  8.73e-03  4.61e-02  0.700   1.0
    4    -1778.9177988615931554    -1.24e-02  2.08e-03  1.91e-02  3.29e-02  0.000   1.1
                              *** Initializing SOSCF ***
---------------------------------------S-O-S-C-F--------------------------------------
Iteration    Energy (Eh)           Delta-E    RMSDP     MaxDP     MaxGrad    Time(sec)
--------------------------------------------------------------------------------------
    5    -1778.9461207802812623    -2.83e-02  1.15e-04  8.48e-04  2.44e-03     1.6
               *** Restarting incremental Fock matrix formation ***
    6    -1778.9460202802749791     1.01e-04  1.45e-04  1.40e-03  9.67e-03     1.0
    7    -1778.9461303379753190    -1.10e-04  6.10e-05  5.56e-04  1.72e-03     1.1
    8    -1778.9461337586578793    -3.42e-06  4.27e-05  4.31e-04  8.27e-04     2.3
    9    -1778.9461353809456341    -1.62e-06  1.45e-05  1.08e-04  5.68e-04     3.0
   10    -1778.9461361023029440    -7.21e-07  2.16e-06  1.80e-05  8.37e-05     2.8
                 **** Energy Check signals convergence ****

               *****************************************************
               *                     SUCCESS                       *
               *           SCF CONVERGED AFTER  10 CYCLES          *
               *****************************************************

Recomputing exchange energy using gridx3       ... done (    0.364 sec)
Old exchange energy                            :    -13.838040857 Eh
New exchange energy                            :    -13.838030376 Eh
Exchange energy change after final integration :      0.000010481 Eh
Total energy after final integration           :  -1778.946125635 Eh
             **** ENERGY FILE WAS UPDATED (zn.en.tmp) ****

----------------
TOTAL SCF ENERGY
----------------

Total Energy       :      -1778.94612563459782 Eh          -48407.58507 eV

Components:
Nuclear Repulsion  :          0.00000000000000 Eh               0.00000 eV
Electronic Energy  :      -1778.31847326379921 Eh          -48390.50578 eV
One Electron Energy:      -2460.03931293955748 Eh          -66941.07292 eV
Two Electron Energy:        681.72083967575827 Eh           18550.56714 eV
CPCM Dielectric    :         -0.62766285186507 Eh             -17.07957 eV

Virial components:
Potential Energy   :      -3554.78106466129384 Eh          -96730.51045 eV
Kinetic Energy     :       1775.83493902669602 Eh           48322.92538 eV
Virial Ratio       :          2.00175195708764

DFT components:
N(Alpha)           :       14.000000008240 electrons
N(Beta)            :       14.000000008240 electrons
N(Total)           :       28.000000016480 electrons
E(X)               :      -55.163647734691 Eh       
E(C)               :       -1.603129151664 Eh       
E(XC)              :      -56.766776886355 Eh       

CPCM Solvation Model Properties:
Surface-charge          :         -2.00171973371883
Corrected charge        :         -2.00000000000000
Outlying charge corr.   :          0.00000046327866 Eh               0.00001 eV
Free-energy (cav+disp)  :  This term is not implemented in the current solvation scheme

---------------
SCF CONVERGENCE
---------------

  Last Energy change         ...    7.2136e-07  Tolerance :   1.0000e-06
  Last MAX-Density change    ...    1.7963e-05  Tolerance :   1.0000e-05
  Last RMS-Density change    ...    2.1579e-06  Tolerance :   1.0000e-06
  Last DIIS Error            ...    2.4400e-03  Tolerance :   1.0000e-06
  Last Orbital Gradient      ...    8.3670e-05  Tolerance :   5.0000e-05
  Last Orbital Rotation      ...    9.5622e-06  Tolerance :   5.0000e-05


----------------
ORBITAL ENERGIES
----------------

  NO   OCC          E(Eh)            E(eV) 
   0   2.0000    -347.389537     -9452.9499 
   1   2.0000     -42.320611     -1151.6024 
   2   2.0000     -37.301560     -1015.0271 
   3   2.0000     -37.301560     -1015.0271 
   4   2.0000     -37.301560     -1015.0271 
   5   2.0000      -4.939351      -134.4066 
   6   2.0000      -3.331475       -90.6541 
   7   2.0000      -3.331475       -90.6540 
   8   2.0000      -3.331475       -90.6540 
   9   2.0000      -0.605344       -16.4723 
  10   2.0000      -0.605344       -16.4722 
  11   2.0000      -0.605344       -16.4722 
  12   2.0000      -0.605344       -16.4722 
  13   2.0000      -0.605344       -16.4722 
  14   0.0000      -0.187199        -5.0939 
  15   0.0000       0.015851         0.4313 
  16   0.0000       0.015851         0.4313 
  17   0.0000       0.015851         0.4313 
  18   0.0000       0.151962         4.1351 
  19   0.0000       0.208450         5.6722 
  20   0.0000       0.208450         5.6722 
  21   0.0000       0.208450         5.6722 
  22   0.0000       0.301141         8.1945 
  23   0.0000       0.301141         8.1945 
  24   0.0000       0.301142         8.1945 
  25   0.0000       0.301142         8.1945 
  26   0.0000       0.301142         8.1945 
  27   0.0000       1.149874        31.2897 
  28   0.0000       1.149875        31.2897 
  29   0.0000       1.149875        31.2897 
  30   0.0000       1.149875        31.2897 
  31   0.0000       1.149875        31.2897 
  32   0.0000       2.218330        60.3638 
  33   0.0000       2.218330        60.3638 
  34   0.0000       2.218330        60.3638 
  35   0.0000       3.317647        90.2778 
  36   0.0000       4.672962       127.1578 
  37   0.0000       4.672962       127.1578 
  38   0.0000       4.672962       127.1578 
  39   0.0000       4.672962       127.1578 
  40   0.0000       4.672962       127.1578 
  41   0.0000       6.389004       173.8536 
  42   0.0000       6.389004       173.8536 
  43   0.0000       6.389004       173.8536 
  44   0.0000       6.389004       173.8536 
  45   0.0000       6.389004       173.8536 
  46   0.0000       6.389004       173.8536 
  47   0.0000       6.389004       173.8536 
------------------
MOLECULAR ORBITALS (RHF, ROHF)
------------------
                      0         1         2         3         4         5   
                 -347.38954 -42.32061 -37.30156 -37.30156 -37.30156  -4.93935
                   2.00000   2.00000   2.00000   2.00000   2.00000   2.00000
                  --------  --------  --------  --------  --------  --------
  0Zn  1s        -0.997654 -0.320516 -0.000000  0.000000 -0.000000  0.120817
  0Zn  2s        -0.007219  1.037802  0.000001 -0.000000  0.000000 -0.470072
  0Zn  3s         0.002673  0.042216  0.000000 -0.000000  0.000000  0.631982
  0Zn  4s        -0.001724 -0.014614 -0.000000  0.000000 -0.000000  0.478614
  0Zn  5s         0.000459  0.003212  0.000000 -0.000000  0.000000  0.016563
  0Zn  6s        -0.000207 -0.001427 -0.000000  0.000000 -0.000000 -0.005727
  0Zn  1pz       -0.000000  0.000000 -0.367877 -0.566870  0.724388 -0.000000
  0Zn  1px        0.000000 -0.000000  0.900623 -0.063398  0.407765  0.000000
  0Zn  1py        0.000000 -0.000000  0.186970 -0.809970 -0.538891  0.000000
  0Zn  2pz       -0.000000 -0.000000 -0.009213 -0.014196  0.018141  0.000000
  0Zn  2px        0.000000  0.000000  0.022554 -0.001588  0.010212 -0.000001
  0Zn  2py        0.000000  0.000000  0.004682 -0.020284 -0.013495 -0.000000
  0Zn  3pz        0.000000  0.000000  0.002071  0.003191 -0.004078  0.000000
  0Zn  3px       -0.000000 -0.000000 -0.005070  0.000357 -0.002296 -0.000001
  0Zn  3py       -0.000000 -0.000000 -0.001053  0.004560  0.003034 -0.000000
  0Zn  1dz2      -0.000000  0.000000 -0.000000  0.000000 -0.000000 -0.000000
  0Zn  1dxz      -0.000000  0.000000 -0.000000 -0.000000  0.000000 -0.000000
  0Zn  1dyz       0.000000 -0.000000 -0.000000  0.000000  0.000000  0.000000
  0Zn  1dx2y2     0.000000 -0.000000  0.000000  0.000000  0.000000  0.000000
  0Zn  1dxy       0.000000 -0.000000  0.000000 -0.000000 -0.000000  0.000000
  0Zn  2dz2       0.000000 -0.000000  0.000000 -0.000000  0.000000 -0.000000
  0Zn  2dxz       0.000000 -0.000000  0.000000  0.000000 -0.000000 -0.000000
  0Zn  2dyz      -0.000000  0.000000  0.000000 -0.000000 -0.000000  0.000000
  0Zn  2dx2y2    -0.000000  0.000000 -0.000000 -0.000000 -0.000000  0.000000
  0Zn  2dxy      -0.000000  0.000000 -0.000000  0.000000  0.000000  0.000000
  0Zn  3dz2       0.000000  0.000000 -0.000000  0.000000 -0.000000 -0.000000
  0Zn  3dxz      -0.000000  0.000000 -0.000000 -0.000000  0.000000 -0.000000
  0Zn  3dyz      -0.000000 -0.000000 -0.000000  0.000000  0.000000  0.000000
  0Zn  3dx2y2    -0.000000 -0.000000  0.000000  0.000000  0.000000  0.000000
  0Zn  3dxy      -0.000000 -0.000000  0.000000 -0.000000 -0.000000  0.000000
  0Zn  4pz       -0.000000 -0.000000 -0.000559 -0.000861  0.001101  0.000000
  0Zn  4px        0.000000  0.000000  0.001369 -0.000096  0.000620 -0.000000
  0Zn  4py        0.000000  0.000000  0.000284 -0.001231 -0.000819 -0.000000
  0Zn  5pz        0.000000  0.000000  0.000214  0.000329 -0.000421 -0.000000
  0Zn  5px       -0.000000 -0.000000 -0.000523  0.000037 -0.000237  0.000000
  0Zn  5py       -0.000000 -0.000000 -0.000109  0.000470  0.000313  0.000000
  0Zn  4dz2       0.000000 -0.000000  0.000000 -0.000000  0.000000  0.000000
  0Zn  4dxz       0.000000 -0.000000  0.000000  0.000000 -0.000000  0.000000
  0Zn  4dyz      -0.000000  0.000000  0.000000 -0.000000 -0.000000 -0.000000
  0Zn  4dx2y2    -0.000000  0.000000 -0.000000 -0.000000 -0.000000 -0.000000
  0Zn  4dxy       0.000000  0.000000 -0.000000  0.000000  0.000000 -0.000000
  0Zn  1f0       -0.000000 -0.000000 -0.000000 -0.000000  0.000000 -0.000000
  0Zn  1f+1       0.000000 -0.000000  0.000000 -0.000000  0.000000  0.000000
  0Zn  1f-1       0.000000  0.000000  0.000000 -0.000000 -0.000000  0.000000
  0Zn  1f+2       0.000000  0.000000  0.000000  0.000000 -0.000000  0.000000
  0Zn  1f-2      -0.000000 -0.000000 -0.000000 -0.000000 -0.000000 -0.000000
  0Zn  1f+3      -0.000000 -0.000000  0.000000  0.000000  0.000000  0.000000
  0Zn  1f-3       0.000000  0.000000  0.000000 -0.000000 -0.000000  0.000000
                      6         7         8         9        10        11   
                  -3.33148  -3.33148  -3.33147  -0.60534  -0.60534  -0.60534
                   2.00000   2.00000   2.00000   2.00000   2.00000   2.00000
                  --------  --------  --------  --------  --------  --------
  0Zn  1s        -0.000000  0.000000 -0.000000  0.000000  0.000000 -0.000000
  0Zn  2s         0.000001 -0.000000  0.000000  0.000000 -0.000000 -0.000000
  0Zn  3s        -0.000002  0.000000 -0.000000  0.000000  0.000000 -0.000000
  0Zn  4s         0.000000  0.000000  0.000000  0.000000  0.000000 -0.000000
  0Zn  5s         0.000000 -0.000000  0.000000 -0.000000 -0.000000  0.000000
  0Zn  6s        -0.000000  0.000000 -0.000000  0.000000 -0.000000 -0.000000
  0Zn  1pz       -0.143661 -0.221433  0.282599  0.000000  0.000000 -0.000000
  0Zn  1px        0.351393 -0.024321  0.159577 -0.000000  0.000000 -0.000000
  0Zn  1py        0.073605 -0.316084 -0.210253 -0.000000  0.000000  0.000000
  0Zn  2pz        0.325903  0.502331 -0.641089 -0.000000 -0.000001  0.000001
  0Zn  2px       -0.797151  0.055173 -0.362008  0.000001 -0.000000  0.000000
  0Zn  2py       -0.166975  0.717052  0.476969  0.000000 -0.000001 -0.000001
  0Zn  3pz        0.096727  0.149090 -0.190273  0.000000  0.000000 -0.000000
  0Zn  3px       -0.236592  0.016375 -0.107443 -0.000001  0.000000 -0.000000
  0Zn  3py       -0.049558  0.212819  0.141563 -0.000000  0.000000  0.000000
  0Zn  1dz2       0.000000 -0.000000  0.000000 -0.213297  0.285210 -0.262589
  0Zn  1dxz       0.000000  0.000000 -0.000000 -0.266454 -0.343935  0.336191
  0Zn  1dyz       0.000000 -0.000000 -0.000000 -0.130730  0.097937  0.251807
  0Zn  1dx2y2    -0.000000 -0.000000 -0.000000  0.505964  0.082207  0.221930
  0Zn  1dxy      -0.000000  0.000000  0.000000  0.135983 -0.438280 -0.336806
  0Zn  2dz2      -0.000000  0.000000 -0.000000 -0.131362  0.175650 -0.161718
  0Zn  2dxz      -0.000000 -0.000000  0.000000 -0.164099 -0.211816  0.207047
  0Zn  2dyz      -0.000000  0.000000  0.000000 -0.080512  0.060315  0.155078
  0Zn  2dx2y2     0.000000  0.000000  0.000000  0.311603  0.050628  0.136678
  0Zn  2dxy       0.000000 -0.000000 -0.000000  0.083747 -0.269920 -0.207425
  0Zn  3dz2      -0.000000  0.000000 -0.000000 -0.072718  0.097235 -0.089523
  0Zn  3dxz      -0.000001 -0.000000  0.000000 -0.090841 -0.117256  0.114616
  0Zn  3dyz      -0.000000  0.000000  0.000000 -0.044569  0.033389  0.085847
  0Zn  3dx2y2     0.000001  0.000000  0.000000  0.172496  0.028026  0.075661
  0Zn  3dxy       0.000000 -0.000001 -0.000000  0.046360 -0.149421 -0.114825
  0Zn  4pz        0.002555  0.003938 -0.005026  0.000000  0.000000 -0.000000
  0Zn  4px       -0.006249  0.000433 -0.002838 -0.000001  0.000000 -0.000000
  0Zn  4py       -0.001309  0.005621  0.003739 -0.000000  0.000000  0.000000
  0Zn  5pz       -0.000544 -0.000838  0.001069 -0.000000 -0.000000  0.000000
  0Zn  5px        0.001330 -0.000092  0.000604  0.000000 -0.000000  0.000000
  0Zn  5py        0.000278 -0.001196 -0.000796 -0.000000 -0.000000 -0.000000
  0Zn  4dz2      -0.000000  0.000000 -0.000000 -0.003639  0.004866 -0.004480
  0Zn  4dxz      -0.000000 -0.000000  0.000000 -0.004546 -0.005868  0.005736
  0Zn  4dyz      -0.000000  0.000000  0.000000 -0.002230  0.001671  0.004296
  0Zn  4dx2y2     0.000000  0.000000  0.000000  0.008632  0.001403  0.003786
  0Zn  4dxy       0.000000 -0.000000 -0.000000  0.002320 -0.007478 -0.005746
  0Zn  1f0        0.000000  0.000000 -0.000000  0.000000 -0.000000 -0.000000
  0Zn  1f+1      -0.000000  0.000000 -0.000000 -0.000000  0.000000 -0.000000
  0Zn  1f-1      -0.000000  0.000000  0.000000 -0.000000  0.000000 -0.000000
  0Zn  1f+2      -0.000000 -0.000000  0.000000 -0.000000 -0.000000  0.000000
  0Zn  1f-2       0.000000  0.000000  0.000000 -0.000000  0.000000  0.000000
  0Zn  1f+3      -0.000000 -0.000000 -0.000000 -0.000000 -0.000000 -0.000000
  0Zn  1f-3      -0.000000  0.000000  0.000000 -0.000000  0.000000  0.000000
                     12        13        14        15        16        17   
                  -0.60534  -0.60534  -0.18720   0.01585   0.01585   0.01585
                   2.00000   2.00000   0.00000   0.00000   0.00000   0.00000
                  --------  --------  --------  --------  --------  --------
  0Zn  1s        -0.000000 -0.000000 -0.033429  0.000000  0.000000 -0.000000
  0Zn  2s        -0.000000  0.000000  0.101478  0.000000 -0.000000  0.000000
  0Zn  3s        -0.000000 -0.000000 -0.259515  0.000000  0.000000 -0.000000
  0Zn  4s        -0.000000 -0.000000 -0.251790 -0.000000 -0.000000 -0.000000
  0Zn  5s         0.000000  0.000000  0.911147  0.000001  0.000000  0.000001
  0Zn  6s        -0.000000 -0.000000  0.229655  0.000000  0.000000 -0.000000
  0Zn  1pz       -0.000000 -0.000000  0.000000  0.000524 -0.049670 -0.042118
  0Zn  1px        0.000000  0.000000 -0.000000  0.065005  0.002940 -0.002658
  0Zn  1py       -0.000000  0.000000 -0.000000 -0.003929  0.042019 -0.049602
  0Zn  2pz        0.000000  0.000000 -0.000000 -0.001513  0.143342  0.121549
  0Zn  2px       -0.000000 -0.000000  0.000001 -0.187597 -0.008485  0.007672
  0Zn  2py        0.000000 -0.000000  0.000000  0.011338 -0.121262  0.143145
  0Zn  3pz       -0.000000 -0.000000  0.000000  0.000128 -0.012090 -0.010252
  0Zn  3px        0.000000  0.000000 -0.000000  0.015823  0.000716 -0.000647
  0Zn  3py       -0.000000  0.000000  0.000000 -0.000956  0.010228 -0.012073
  0Zn  1dz2       0.459967  0.026687 -0.000000 -0.000000  0.000000  0.000000
  0Zn  1dxz       0.271216  0.179454 -0.000000 -0.000000 -0.000000 -0.000000
  0Zn  1dyz       0.054965 -0.561217  0.000000  0.000000 -0.000000  0.000000
  0Zn  1dx2y2     0.308824  0.026308  0.000000  0.000000  0.000000 -0.000000
  0Zn  1dxy       0.156697 -0.243931  0.000000  0.000000  0.000000 -0.000000
  0Zn  2dz2       0.283275  0.016436 -0.000000 -0.000000  0.000000  0.000000
  0Zn  2dxz       0.167031  0.110519 -0.000000 -0.000000 -0.000000 -0.000000
  0Zn  2dyz       0.033851 -0.345632  0.000000 -0.000000 -0.000000  0.000000
  0Zn  2dx2y2     0.190193  0.016202  0.000000  0.000000  0.000000 -0.000000
  0Zn  2dxy       0.096503 -0.150227  0.000000 -0.000000  0.000000 -0.000000
  0Zn  3dz2       0.156814  0.009098 -0.000000 -0.000000 -0.000000  0.000000
  0Zn  3dxz       0.092464  0.061180 -0.000000 -0.000000 -0.000000 -0.000000
  0Zn  3dyz       0.018739 -0.191333  0.000000  0.000000 -0.000000 -0.000000
  0Zn  3dx2y2     0.105286  0.008969  0.000000  0.000000 -0.000000  0.000000
  0Zn  3dxy       0.053422 -0.083162  0.000000  0.000000  0.000000 -0.000000
  0Zn  4pz       -0.000000  0.000000 -0.000000  0.003630 -0.343999 -0.291698
  0Zn  4px        0.000000  0.000000 -0.000001  0.450202  0.020363 -0.018411
  0Zn  4py        0.000000  0.000000 -0.000001 -0.027210  0.291008 -0.343525
  0Zn  5pz        0.000000 -0.000000  0.000001  0.005201 -0.492851 -0.417918
  0Zn  5px        0.000000 -0.000000 -0.000000  0.645011  0.029173 -0.026377
  0Zn  5py       -0.000000 -0.000000  0.000001 -0.038985  0.416931 -0.492172
  0Zn  4dz2       0.007848  0.000455 -0.000000  0.000000 -0.000001 -0.000000
  0Zn  4dxz       0.004627  0.003062 -0.000000  0.000000  0.000000  0.000000
  0Zn  4dyz       0.000938 -0.009575  0.000000  0.000000 -0.000000 -0.000000
  0Zn  4dx2y2     0.005269  0.000449  0.000000 -0.000000 -0.000000  0.000000
  0Zn  4dxy       0.002673 -0.004162  0.000000  0.000000 -0.000000  0.000000
  0Zn  1f0       -0.000000 -0.000000  0.000000 -0.000000 -0.000000 -0.000000
  0Zn  1f+1       0.000000 -0.000000 -0.000000 -0.000000 -0.000000 -0.000000
  0Zn  1f-1       0.000000  0.000000 -0.000000  0.000000 -0.000000  0.000000
  0Zn  1f+2       0.000000  0.000000 -0.000000  0.000000  0.000000  0.000000
  0Zn  1f-2       0.000000 -0.000000  0.000000  0.000000  0.000000 -0.000000
  0Zn  1f+3      -0.000000  0.000000 -0.000000 -0.000000 -0.000000  0.000000
  0Zn  1f-3      -0.000000  0.000000 -0.000000  0.000000  0.000000 -0.000000
                     18        19        20        21        22        23   
                   0.15196   0.20845   0.20845   0.20845   0.30114   0.30114
                   0.00000   0.00000   0.00000   0.00000   0.00000   0.00000
                  --------  --------  --------  --------  --------  --------
  0Zn  1s         0.021555 -0.000000  0.000000  0.000000  0.000000 -0.000000
  0Zn  2s        -0.075034 -0.000000 -0.000000 -0.000000 -0.000000  0.000000
  0Zn  3s         0.152552 -0.000000  0.000000  0.000000  0.000000 -0.000000
  0Zn  4s         0.283984  0.000000  0.000000  0.000001 -0.000000 -0.000000
  0Zn  5s        -1.788020 -0.000002 -0.000003 -0.000006  0.000000  0.000000
  0Zn  6s         1.804430  0.000003  0.000003  0.000005 -0.000000 -0.000000
  0Zn  1pz       -0.000000  0.048030  0.066798 -0.006814  0.000000 -0.000000
  0Zn  1px        0.000000 -0.016381  0.003533 -0.080836  0.000000 -0.000000
  0Zn  1py        0.000000  0.065115 -0.048382 -0.015310  0.000000  0.000000
  0Zn  2pz        0.000001 -0.136847 -0.190320  0.019414 -0.000000  0.000001
  0Zn  2px       -0.000001  0.046674 -0.010065  0.230317 -0.000000  0.000000
  0Zn  2py       -0.000000 -0.185527  0.137850  0.043621 -0.000000 -0.000000
  0Zn  3pz       -0.000000 -0.015689 -0.021819  0.002226 -0.000000  0.000000
  0Zn  3px        0.000000  0.005351 -0.001154  0.026404 -0.000000  0.000000
  0Zn  3py        0.000000 -0.021269  0.015804  0.005001 -0.000000 -0.000000
  0Zn  1dz2       0.000000 -0.000000  0.000000  0.000000 -0.073143  0.126247
  0Zn  1dxz      -0.000000  0.000000  0.000000 -0.000000 -0.000283 -0.000711
  0Zn  1dyz      -0.000000  0.000000  0.000000 -0.000000 -0.000088  0.000014
  0Zn  1dx2y2     0.000000 -0.000001  0.000000 -0.000000  0.126248  0.073141
  0Zn  1dxy       0.000000  0.000000 -0.000000 -0.000000  0.000242 -0.000536
  0Zn  2dz2       0.000000 -0.000000  0.000000  0.000000 -0.027140  0.046845
  0Zn  2dxz       0.000000  0.000000  0.000000 -0.000000 -0.000105 -0.000264
  0Zn  2dyz      -0.000000  0.000000  0.000000 -0.000000 -0.000033  0.000005
  0Zn  2dx2y2    -0.000000 -0.000000  0.000000 -0.000000  0.046846  0.027140
  0Zn  2dxy      -0.000000  0.000000 -0.000000 -0.000000  0.000090 -0.000199
  0Zn  3dz2       0.000000  0.000000  0.000000 -0.000000 -0.041746  0.072055
  0Zn  3dxz       0.000000 -0.000000 -0.000000 -0.000000 -0.000161 -0.000406
  0Zn  3dyz      -0.000000  0.000000 -0.000000 -0.000000 -0.000050  0.000008
  0Zn  3dx2y2    -0.000000 -0.000000  0.000000  0.000000  0.072056  0.041745
  0Zn  3dxy      -0.000000 -0.000000  0.000000  0.000000  0.000138 -0.000306
  0Zn  4pz       -0.000002  0.726183  1.009940 -0.103023  0.000001 -0.000002
  0Zn  4px        0.000004 -0.247675  0.053413 -1.222186 -0.000001 -0.000000
  0Zn  4py       -0.000000  0.984505 -0.731507 -0.231477  0.000003  0.000003
  0Zn  5pz        0.000002 -0.666575 -0.927039  0.094567 -0.000002  0.000003
  0Zn  5px       -0.000004  0.227344 -0.049028  1.121863  0.000000  0.000000
  0Zn  5py       -0.000000 -0.903692  0.671462  0.212477 -0.000003 -0.000003
  0Zn  4dz2      -0.000000 -0.000001 -0.000003 -0.000000  0.519888 -0.897346
  0Zn  4dxz       0.000000 -0.000000  0.000000  0.000001  0.002010  0.005054
  0Zn  4dyz      -0.000000 -0.000002 -0.000001  0.000001  0.000627 -0.000099
  0Zn  4dx2y2    -0.000000  0.000003 -0.000002 -0.000000 -0.897358 -0.519877
  0Zn  4dxy      -0.000000  0.000000 -0.000000  0.000001 -0.001718  0.003813
  0Zn  1f0       -0.000000  0.000000  0.000000  0.000000 -0.000000  0.000000
  0Zn  1f+1      -0.000000  0.000000  0.000000  0.000000  0.000000 -0.000000
  0Zn  1f-1       0.000000 -0.000000  0.000000  0.000000  0.000000 -0.000000
  0Zn  1f+2       0.000000 -0.000000 -0.000000 -0.000000  0.000000  0.000000
  0Zn  1f-2      -0.000000  0.000000 -0.000000  0.000000 -0.000000 -0.000000
  0Zn  1f+3      -0.000000  0.000000  0.000000  0.000000  0.000000  0.000000
  0Zn  1f-3      -0.000000  0.000000 -0.000000 -0.000000  0.000000  0.000000
                     24        25        26        27        28        29   
                   0.30114   0.30114   0.30114   1.14987   1.14987   1.14987
                   0.00000   0.00000   0.00000   0.00000   0.00000   0.00000
                  --------  --------  --------  --------  --------  --------
  0Zn  1s         0.000000  0.000000  0.000000  0.000000  0.000000  0.000000
  0Zn  2s        -0.000000 -0.000000 -0.000000 -0.000000 -0.000000 -0.000000
  0Zn  3s         0.000000  0.000000  0.000000  0.000000  0.000000  0.000000
  0Zn  4s         0.000000 -0.000000 -0.000000 -0.000000 -0.000000 -0.000000
  0Zn  5s        -0.000000  0.000000  0.000000  0.000000  0.000000  0.000000
  0Zn  6s         0.000000 -0.000000 -0.000000 -0.000000  0.000000 -0.000000
  0Zn  1pz       -0.000000 -0.000000 -0.000000  0.000000 -0.000000 -0.000000
  0Zn  1px        0.000000  0.000000 -0.000000  0.000000  0.000000  0.000000
  0Zn  1py       -0.000000  0.000000 -0.000000 -0.000000 -0.000000  0.000000
  0Zn  2pz        0.000000  0.000000  0.000000 -0.000000  0.000000  0.000000
  0Zn  2px       -0.000000 -0.000000  0.000000 -0.000001 -0.000000 -0.000000
  0Zn  2py        0.000000 -0.000000  0.000000  0.000000  0.000000 -0.000001
  0Zn  3pz        0.000000  0.000000  0.000000  0.000000 -0.000000 -0.000000
  0Zn  3px       -0.000000 -0.000000  0.000000  0.000000  0.000000  0.000000
  0Zn  3py        0.000000 -0.000000  0.000000 -0.000000 -0.000000  0.000000
  0Zn  1dz2      -0.000654 -0.000369  0.000073 -0.169850  0.303245  0.015813
  0Zn  1dxz      -0.029051 -0.140695 -0.025477 -0.013263 -0.026423 -0.038125
  0Zn  1dyz       0.046639 -0.033900  0.134030 -0.005903  0.000241 -0.147163
  0Zn  1dx2y2    -0.000153 -0.000588 -0.000020  0.303812  0.168800 -0.003600
  0Zn  1dxy      -0.135163  0.018545  0.051724  0.007681 -0.016477  0.313125
  0Zn  2dz2      -0.000243 -0.000137  0.000027 -0.154450  0.275751  0.014379
  0Zn  2dxz      -0.010780 -0.052206 -0.009454 -0.012061 -0.024027 -0.034669
  0Zn  2dyz       0.017306 -0.012579  0.049734 -0.005368  0.000219 -0.133820
  0Zn  2dx2y2    -0.000057 -0.000218 -0.000007  0.276267  0.153496 -0.003273
  0Zn  2dxy      -0.050154  0.006881  0.019193  0.006984 -0.014983  0.284735
  0Zn  3dz2      -0.000374 -0.000211  0.000042  0.654057 -1.167733 -0.060891
  0Zn  3dxz      -0.016581 -0.080301 -0.014541  0.051074  0.101750  0.146813
  0Zn  3dyz       0.026619 -0.019349  0.076497  0.022730 -0.000928  0.566694
  0Zn  3dx2y2    -0.000087 -0.000336 -0.000011 -1.169919 -0.650015  0.013861
  0Zn  3dxy      -0.077143  0.010584  0.029521 -0.029577  0.063450 -1.205780
  0Zn  4pz       -0.000001  0.000001 -0.000003 -0.000000  0.000000  0.000000
  0Zn  4px        0.000001  0.000001 -0.000000 -0.000001  0.000000 -0.000000
  0Zn  4py       -0.000000  0.000001 -0.000001  0.000000  0.000000 -0.000001
  0Zn  5pz        0.000001 -0.000001  0.000003  0.000000 -0.000000 -0.000000
  0Zn  5px       -0.000001 -0.000001  0.000000  0.000000 -0.000000  0.000000
  0Zn  5py        0.000001 -0.000001  0.000001 -0.000000 -0.000000  0.000000
  0Zn  4dz2       0.004652  0.002624 -0.000520 -0.344595  0.615229  0.032081
  0Zn  4dxz       0.206493  1.000040  0.181088 -0.026909 -0.053608 -0.077349
  0Zn  4dyz      -0.331506  0.240960 -0.952672 -0.011976  0.000489 -0.298567
  0Zn  4dx2y2     0.001086  0.004181  0.000143  0.616381  0.342465 -0.007303
  0Zn  4dxy       0.960720 -0.131816 -0.367649  0.015583 -0.033429  0.635274
  0Zn  1f0       -0.000000 -0.000000  0.000000 -0.000000  0.000000 -0.000000
  0Zn  1f+1      -0.000000 -0.000000 -0.000000  0.000000 -0.000000 -0.000000
  0Zn  1f-1      -0.000000 -0.000000  0.000000  0.000000 -0.000000  0.000000
  0Zn  1f+2       0.000000  0.000000  0.000000  0.000000  0.000000  0.000000
  0Zn  1f-2      -0.000000  0.000000 -0.000000  0.000000 -0.000000  0.000000
  0Zn  1f+3       0.000000 -0.000000 -0.000000  0.000000  0.000000 -0.000000
  0Zn  1f-3      -0.000000  0.000000  0.000000  0.000000  0.000000  0.000000
                     30        31        32        33        34        35   
                   1.14987   1.14988   2.21833   2.21833   2.21833   3.31765
                   0.00000   0.00000   0.00000   0.00000   0.00000   0.00000
                  --------  --------  --------  --------  --------  --------
  0Zn  1s        -0.000000  0.000000 -0.000000  0.000000  0.000000 -0.166211
  0Zn  2s         0.000000 -0.000000  0.000000 -0.000000 -0.000000 -0.069981
  0Zn  3s        -0.000000  0.000000 -0.000003  0.000001  0.000000 -2.330364
  0Zn  4s         0.000000 -0.000000  0.000003 -0.000001 -0.000000  2.818700
  0Zn  5s        -0.000000  0.000000 -0.000002  0.000000  0.000000 -1.172928
  0Zn  6s         0.000000 -0.000000  0.000001 -0.000000 -0.000000  0.539338
  0Zn  1pz        0.000000 -0.000000  0.168058  0.151937  0.227801 -0.000000
  0Zn  1px       -0.000000  0.000000 -0.271311  0.056288  0.162615  0.000000
  0Zn  1py        0.000000  0.000000 -0.036992  0.277432 -0.157749  0.000000
  0Zn  2pz       -0.000001  0.000000 -0.618818 -0.559459 -0.838800  0.000000
  0Zn  2px        0.000000 -0.000000  0.999013 -0.207260 -0.598776 -0.000001
  0Zn  2py       -0.000000 -0.000000  0.136212 -1.021550  0.580859 -0.000000
  0Zn  3pz        0.000000 -0.000000  0.826231  0.746976  1.119947 -0.000001
  0Zn  3px       -0.000000  0.000000 -1.333858  0.276729  0.799472  0.000002
  0Zn  3py        0.000000  0.000000 -0.181867  1.363950 -0.775550  0.000000
  0Zn  1dz2       0.019085  0.000119  0.000000 -0.000000 -0.000000  0.000000
  0Zn  1dxz       0.333931 -0.087081  0.000000  0.000000  0.000000  0.000000
  0Zn  1dyz       0.063646  0.309319  0.000000 -0.000000  0.000000 -0.000000
  0Zn  1dx2y2     0.024717 -0.001132 -0.000000 -0.000000  0.000000 -0.000000
  0Zn  1dxy       0.069891  0.134752 -0.000000  0.000000 -0.000000 -0.000000
  0Zn  2dz2       0.017355  0.000108 -0.000000  0.000000  0.000000 -0.000000
  0Zn  2dxz       0.303655 -0.079186 -0.000000 -0.000000 -0.000000 -0.000000
  0Zn  2dyz       0.057875  0.281274 -0.000000  0.000000 -0.000000  0.000000
  0Zn  2dx2y2     0.022476 -0.001030  0.000000  0.000000 -0.000000  0.000000
  0Zn  2dxy       0.063555  0.122535  0.000000 -0.000000  0.000000  0.000000
  0Zn  3dz2      -0.073492 -0.000457  0.000000 -0.000000 -0.000001  0.000000
  0Zn  3dxz      -1.285899  0.335333  0.000001  0.000000  0.000000  0.000000
  0Zn  3dyz      -0.245088 -1.191123  0.000000 -0.000000  0.000000 -0.000000
  0Zn  3dx2y2    -0.095182  0.004360 -0.000001  0.000000  0.000001 -0.000000
  0Zn  3dxy      -0.269137 -0.518902 -0.000000  0.000001 -0.000000 -0.000000
  0Zn  4pz       -0.000001 -0.000000 -0.432310 -0.390842 -0.585991  0.000000
  0Zn  4px        0.000000 -0.000000  0.697917 -0.144793 -0.418309 -0.000001
  0Zn  4py       -0.000000 -0.000000  0.095159 -0.713661  0.405792 -0.000000
  0Zn  5pz        0.000000  0.000000  0.171206  0.154784  0.232068 -0.000000
  0Zn  5px       -0.000000  0.000000 -0.276394  0.057342  0.165662  0.000000
  0Zn  5py        0.000000  0.000000 -0.037685  0.282629 -0.160704  0.000000
  0Zn  4dz2       0.038720  0.000241 -0.000000  0.000000  0.000000 -0.000000
  0Zn  4dxz       0.677486 -0.176673 -0.000000 -0.000000 -0.000000 -0.000000
  0Zn  4dyz       0.129126  0.627552 -0.000000  0.000000 -0.000000  0.000000
  0Zn  4dx2y2     0.050147 -0.002297  0.000000  0.000000 -0.000000  0.000000
  0Zn  4dxy       0.141797  0.273388  0.000000 -0.000000  0.000000  0.000000
  0Zn  1f0        0.000000 -0.000000 -0.000000 -0.000000  0.000000  0.000000
  0Zn  1f+1       0.000000 -0.000000  0.000000 -0.000000 -0.000000 -0.000000
  0Zn  1f-1       0.000000  0.000000  0.000000 -0.000000  0.000000 -0.000000
  0Zn  1f+2      -0.000000  0.000000  0.000000  0.000000  0.000000 -0.000000
  0Zn  1f-2      -0.000000 -0.000000  0.000000 -0.000000  0.000000  0.000000
  0Zn  1f+3       0.000000 -0.000000  0.000000  0.000000 -0.000000 -0.000000
  0Zn  1f-3       0.000000  0.000000  0.000000 -0.000000 -0.000000 -0.000000
                     36        37        38        39        40        41   
                   4.67296   4.67296   4.67296   4.67296   4.67296   6.38900
                   0.00000   0.00000   0.00000   0.00000   0.00000   0.00000
                  --------  --------  --------  --------  --------  --------
  0Zn  1s        -0.000000 -0.000000  0.000000  0.000000  0.000000 -0.000000
  0Zn  2s        -0.000000 -0.000000  0.000000  0.000000  0.000000  0.000000
  0Zn  3s        -0.000000 -0.000000  0.000000  0.000000  0.000000 -0.000000
  0Zn  4s         0.000000  0.000000 -0.000000 -0.000000 -0.000000 -0.000000
  0Zn  5s        -0.000000 -0.000000  0.000000  0.000000  0.000000 -0.000000
  0Zn  6s         0.000000  0.000000 -0.000000 -0.000000 -0.000000  0.000000
  0Zn  1pz        0.000000  0.000000 -0.000000 -0.000000 -0.000000 -0.000000
  0Zn  1px       -0.000000  0.000000  0.000000  0.000000  0.000000  0.000000
  0Zn  1py        0.000000  0.000000  0.000000 -0.000000  0.000000 -0.000000
  0Zn  2pz       -0.000000 -0.000000  0.000000  0.000000  0.000000  0.000000
  0Zn  2px        0.000000 -0.000000 -0.000000 -0.000000 -0.000000 -0.000000
  0Zn  2py       -0.000000 -0.000000 -0.000000  0.000000 -0.000000  0.000000
  0Zn  3pz        0.000000  0.000000 -0.000000 -0.000000 -0.000000  0.000000
  0Zn  3px       -0.000001  0.000000  0.000000  0.000000  0.000000 -0.000000
  0Zn  3py        0.000000  0.000000  0.000001 -0.000000  0.000000  0.000000
  0Zn  1dz2      -0.404075  0.645526 -0.235681  0.486785  0.000460 -0.000000
  0Zn  1dxz      -0.196565 -0.469047  0.381447  0.643298  0.233471 -0.000000
  0Zn  1dyz      -0.089910  0.049030  0.415568  0.062331 -0.827899 -0.000000
  0Zn  1dx2y2     0.807470  0.265483  0.109643  0.371287  0.011020  0.000000
  0Zn  1dxy       0.102376 -0.403598 -0.697654  0.282762 -0.363922 -0.000000
  0Zn  2dz2       0.615065 -0.982593  0.358744 -0.740964 -0.000700 -0.000000
  0Zn  2dxz       0.299203  0.713964 -0.580623 -0.979202 -0.355379 -0.000000
  0Zn  2dyz       0.136857 -0.074631 -0.632560 -0.094877  1.260193 -0.000000
  0Zn  2dx2y2    -1.229097 -0.404108 -0.166893 -0.565158 -0.016775  0.000000
  0Zn  2dxy      -0.155833  0.614340  1.061939 -0.430408  0.553946  0.000000
  0Zn  3dz2      -0.363512  0.580726 -0.212023  0.437920  0.000414 -0.000000
  0Zn  3dxz      -0.176833 -0.421962  0.343156  0.578722  0.210034 -0.000000
  0Zn  3dyz      -0.080884  0.044108  0.373851  0.056074 -0.744791 -0.000000
  0Zn  3dx2y2     0.726413  0.238833  0.098636  0.334016  0.009914  0.000000
  0Zn  3dxy       0.092099 -0.363084 -0.627620  0.254377 -0.327390 -0.000000
  0Zn  4pz       -0.000000 -0.000000  0.000000  0.000000 -0.000000  0.000000
  0Zn  4px        0.000000 -0.000000 -0.000000 -0.000000 -0.000000 -0.000000
  0Zn  4py       -0.000000 -0.000000 -0.000000  0.000000 -0.000000  0.000000
  0Zn  5pz        0.000000  0.000000 -0.000000 -0.000000  0.000000 -0.000000
  0Zn  5px       -0.000000  0.000000  0.000000 -0.000000  0.000000  0.000000
  0Zn  5py        0.000000  0.000000  0.000000  0.000000  0.000000 -0.000000
  0Zn  4dz2       0.122388 -0.195519  0.071384 -0.147439 -0.000139 -0.000000
  0Zn  4dxz       0.059536  0.142067 -0.115534 -0.194844 -0.070714  0.000000
  0Zn  4dyz       0.027232 -0.014850 -0.125869 -0.018879  0.250757  0.000000
  0Zn  4dx2y2    -0.244569 -0.080411 -0.033209 -0.112457 -0.003338 -0.000000
  0Zn  4dxy      -0.031008  0.122243  0.211308 -0.085644  0.110226  0.000000
  0Zn  1f0        0.000000 -0.000000 -0.000000 -0.000000 -0.000000 -0.323805
  0Zn  1f+1      -0.000000  0.000000 -0.000000  0.000000 -0.000000 -0.145751
  0Zn  1f-1      -0.000000  0.000000 -0.000000 -0.000000  0.000000 -0.211084
  0Zn  1f+2      -0.000000 -0.000000  0.000000  0.000000  0.000000  0.641396
  0Zn  1f-2      -0.000000  0.000000  0.000000  0.000000 -0.000000  0.158153
  0Zn  1f+3      -0.000000 -0.000000 -0.000000 -0.000000 -0.000000  0.607621
  0Zn  1f-3      -0.000000  0.000000  0.000000 -0.000000  0.000000 -0.154099
                     42        43        44        45        46        47   
                   6.38900   6.38900   6.38900   6.38900   6.38900   6.38900
                   0.00000   0.00000   0.00000   0.00000   0.00000   0.00000
                  --------  --------  --------  --------  --------  --------
  0Zn  1s         0.000000  0.000000  0.000000  0.000000 -0.000000 -0.000000
  0Zn  2s        -0.000000 -0.000000 -0.000000 -0.000000  0.000000  0.000000
  0Zn  3s         0.000000  0.000000  0.000000  0.000000 -0.000000 -0.000000
  0Zn  4s         0.000000  0.000000  0.000000  0.000000 -0.000000 -0.000000
  0Zn  5s         0.000000  0.000000  0.000000  0.000000 -0.000000 -0.000000
  0Zn  6s        -0.000000 -0.000000 -0.000000 -0.000000  0.000000  0.000000
  0Zn  1pz       -0.000000  0.000000  0.000000  0.000000  0.000000 -0.000000
  0Zn  1px       -0.000000  0.000000 -0.000000 -0.000000  0.000000 -0.000000
  0Zn  1py       -0.000000 -0.000000 -0.000000 -0.000000  0.000000  0.000000
  0Zn  2pz        0.000000 -0.000000 -0.000000 -0.000000 -0.000000  0.000000
  0Zn  2px        0.000000 -0.000000  0.000000  0.000000 -0.000000  0.000000
  0Zn  2py        0.000000  0.000000  0.000000  0.000000 -0.000000 -0.000000
  0Zn  3pz        0.000000 -0.000000 -0.000000 -0.000000 -0.000000  0.000000
  0Zn  3px        0.000000 -0.000000  0.000000  0.000000 -0.000000  0.000000
  0Zn  3py        0.000000  0.000000  0.000000  0.000000 -0.000000 -0.000000
  0Zn  1dz2       0.000000 -0.000000  0.000000  0.000000  0.000000 -0.000000
  0Zn  1dxz       0.000000  0.000000  0.000000  0.000000 -0.000000 -0.000000
  0Zn  1dyz       0.000000  0.000000  0.000000 -0.000000  0.000000 -0.000000
  0Zn  1dx2y2    -0.000000  0.000000  0.000000 -0.000000  0.000000  0.000000
  0Zn  1dxy      -0.000000 -0.000000  0.000000 -0.000000 -0.000000 -0.000000
  0Zn  2dz2       0.000000 -0.000000  0.000000  0.000000  0.000000 -0.000000
  0Zn  2dxz       0.000000  0.000000  0.000000  0.000000 -0.000000 -0.000000
  0Zn  2dyz      -0.000000  0.000000  0.000000 -0.000000  0.000000 -0.000000
  0Zn  2dx2y2    -0.000000  0.000000  0.000000 -0.000000  0.000000  0.000000
  0Zn  2dxy      -0.000000 -0.000000  0.000000 -0.000000 -0.000000 -0.000000
  0Zn  3dz2       0.000000 -0.000000  0.000000  0.000000  0.000000  0.000000
  0Zn  3dxz       0.000000  0.000000  0.000000  0.000000 -0.000000 -0.000000
  0Zn  3dyz       0.000000  0.000000  0.000000 -0.000000  0.000000 -0.000000
  0Zn  3dx2y2    -0.000000  0.000000  0.000000 -0.000000  0.000000 -0.000000
  0Zn  3dxy      -0.000000 -0.000000  0.000000 -0.000000 -0.000000 -0.000000
  0Zn  4pz        0.000000 -0.000000  0.000000 -0.000000 -0.000000  0.000000
  0Zn  4px        0.000000 -0.000000  0.000000  0.000000 -0.000000  0.000000
  0Zn  4py        0.000000  0.000000  0.000000  0.000000 -0.000000 -0.000000
  0Zn  5pz       -0.000000  0.000000 -0.000000  0.000000  0.000000 -0.000000
  0Zn  5px       -0.000000  0.000000 -0.000000 -0.000000  0.000000 -0.000000
  0Zn  5py       -0.000000 -0.000000 -0.000000 -0.000000  0.000000  0.000000
  0Zn  4dz2      -0.000000  0.000000 -0.000000 -0.000000  0.000000 -0.000000
  0Zn  4dxz       0.000000 -0.000000 -0.000000 -0.000000 -0.000000  0.000000
  0Zn  4dyz      -0.000000 -0.000000 -0.000000  0.000000  0.000000  0.000000
  0Zn  4dx2y2     0.000000 -0.000000 -0.000000  0.000000  0.000000  0.000000
  0Zn  4dxy       0.000000  0.000000 -0.000000  0.000000 -0.000000 -0.000000
  0Zn  1f0        0.165906  0.169019  0.640233  0.135114  0.543409  0.340016
  0Zn  1f+1      -0.504520  0.630945 -0.419821 -0.022560  0.385774 -0.023337
  0Zn  1f-1      -0.099202  0.120785  0.000643 -0.581633 -0.400579  0.657460
  0Zn  1f+2       0.089797 -0.193083 -0.109632 -0.452258  0.540969  0.184560
  0Zn  1f-2      -0.414275 -0.358228 -0.149125  0.574374  0.009524  0.568157
  0Zn  1f+3      -0.228997  0.477319  0.489974  0.114068 -0.311706 -0.016646
  0Zn  1f-3      -0.689903 -0.406583  0.373522 -0.309006  0.074321 -0.307327



                    ********************************
                    * MULLIKEN POPULATION ANALYSIS *
                    ********************************

-----------------------
MULLIKEN ATOMIC CHARGES
-----------------------
   0 Zn:    2.000000
Sum of atomic charges:    2.0000000

--------------------------------
MULLIKEN REDUCED ORBITAL CHARGES
--------------------------------
  0 Zns       :     6.000000  s :     6.000000
      pz      :     4.000000  p :    12.000000
      px      :     4.000000
      py      :     4.000000
      dz2     :     2.000000  d :    10.000000
      dxz     :     2.000000
      dyz     :     2.000000
      dx2y2   :     2.000000
      dxy     :     2.000000
      f0      :     0.000000  f :     0.000000
      f+1     :     0.000000
      f-1     :     0.000000
      f+2     :     0.000000
      f-2     :     0.000000
      f+3     :     0.000000
      f-3     :     0.000000



                     *******************************
                     * LOEWDIN POPULATION ANALYSIS *
                     *******************************

----------------------
LOEWDIN ATOMIC CHARGES
----------------------
   0 Zn:    2.000000

-------------------------------
LOEWDIN REDUCED ORBITAL CHARGES
-------------------------------
  0 Zns       :     6.000000  s :     6.000000
      pz      :     4.000000  p :    12.000000
      px      :     4.000000
      py      :     4.000000
      dz2     :     2.000000  d :    10.000000
      dxz     :     2.000000
      dyz     :     2.000000
      dx2y2   :     2.000000
      dxy     :     2.000000
      f0      :     0.000000  f :     0.000000
      f+1     :     0.000000
      f-1     :     0.000000
      f+2     :     0.000000
      f-2     :     0.000000
      f+3     :     0.000000
      f-3     :     0.000000



                      *****************************
                      * MAYER POPULATION ANALYSIS *
                      *****************************

  NA   - Mulliken gross atomic population
  ZA   - Total nuclear charge
  QA   - Mulliken gross atomic charge
  VA   - Mayer's total valence
  BVA  - Mayer's bonded valence
  FA   - Mayer's free valence

  ATOM       NA         ZA         QA         VA         BVA        FA
  0 Zn    28.0000    30.0000     2.0000     0.0000     0.0000     0.0000

  Mayer bond orders larger than 0.100000
  => no bond orders to print


Warning: MO coefficients are modified such that the real solid harmonic m components
have the correct order within each shell (0, +1, -1, +2, -2, ...) and all s orbitals
come before all p orbitals etc. (with increasing orbital energy within each block of given angular momentum).

--------------------------
ATOM BASIS FOR ELEMENT Zn
--------------------------
 NewGTO Zn
 S 17
    1     405924.310279999976         0.000236940082
    2      60846.955735000003         0.001837290905
    3      13847.343091999999         0.009556286919
    4       3919.615855100000         0.038871295438
    5       1276.359416700000         0.126745729974
    6        458.672544350000         0.301702495607
    7        178.287252460000         0.433796362203
    8         70.612192837000         0.230340801669
    9        443.880779500000        -0.000181494245
   10        137.558752670000        -0.000860217898
   11         22.268083479000         0.004030135096
   12          9.521731060600         0.003830810732
   13         14.874114065000         0.001010253105
   14          2.464751761200        -0.003134103123
   15          1.011327223800         0.001723895349
   16          0.149198520900        -0.000458568677
   17          0.051441873000         0.000207007542
 S 17
    1     405924.310279999976         0.000076121651
    2      60846.955735000003         0.000590265757
    3      13847.343091999999         0.003070144701
    4       3919.615855100000         0.012488166452
    5       1276.359416700000         0.040719552954
    6        458.672544350000         0.096927847185
    7        178.287252460000         0.139365593979
    8         70.612192837000         0.074001502639
    9        443.880779500000         0.026091069955
   10        137.558752670000         0.123662352613
   11         22.268083479000        -0.579360169653
   12          9.521731060600        -0.550705895068
   13         14.874114065000         0.015952802183
   14          2.464751761200        -0.049490297905
   15          1.011327223800         0.014613917634
   16          0.149198520900        -0.003211685639
   17          0.051441873000         0.001426930298
 S 17
    1     405924.310279999976         0.000028693819
    2      60846.955735000003         0.000222498835
    3      13847.343091999999         0.001157281463
    4       3919.615855100000         0.004707375367
    5       1276.359416700000         0.015349108397
    6        458.672544350000         0.036536649476
    7        178.287252460000         0.052533425678
    8         70.612192837000         0.027894635454
    9        443.880779500000         0.011817937706
   10        137.558752670000         0.056012803700
   11         22.268083479000        -0.262420912820
   12          9.521731060600        -0.249441972798
   13         14.874114065000        -0.238818974745
   14          2.464751761200         0.740886903110
   15          1.011327223800         0.478613678779
   16          0.149198520900         0.016563002143
   17          0.051441873000        -0.005727386326
 S 17
    1     405924.310279999976         0.000007939206
    2      60846.955735000003         0.000061562528
    3      13847.343091999999         0.000320204698
    4       3919.615855100000         0.001302469415
    5       1276.359416700000         0.004246898256
    6        458.672544350000         0.010109214746
    7        178.287252460000         0.014535314242
    8         70.612192837000         0.007718082093
    9        443.880779500000         0.002551237800
   10        137.558752670000         0.012091955944
   11         22.268083479000        -0.056651013822
   12          9.521731060600        -0.053849140668
   13         14.874114065000        -0.098067878568
   14          2.464751761200         0.304235485998
   15          1.011327223800         0.251790183421
   16          0.149198520900        -0.911146604177
   17          0.051441873000        -0.229654567982
 S 17
    1     405924.310279999976         0.000005119271
    2      60846.955735000003         0.000039696069
    3      13847.343091999999         0.000206470858
    4       3919.615855100000         0.000839843945
    5       1276.359416700000         0.002738438033
    6        458.672544350000         0.006518512212
    7        178.287252460000         0.009372500810
    8         70.612192837000         0.004976688461
    9        443.880779500000         0.001886403846
   10        137.558752670000         0.008940880461
   11         22.268083479000        -0.041888173005
   12          9.521731060600        -0.039816447550
   13         14.874114065000        -0.057647824050
   14          2.464751761200         0.178840554346
   15          1.011327223800         0.283983966654
   16          0.149198520900        -1.788019553166
   17          0.051441873000         1.804430477045
 S 17
    1     405924.310279999976        -0.000039474690
    2      60846.955735000003        -0.000306096329
    3      13847.343091999999        -0.001592096459
    4       3919.615855100000        -0.006476035341
    5       1276.359416700000        -0.021116091382
    6        458.672544350000        -0.050264237451
    7        178.287252460000        -0.072271339060
    8         70.612192837000        -0.038375236925
    9        443.880779500000         0.001759375349
   10        137.558752670000         0.008338810756
   11         22.268083479000        -0.039067466472
   12          9.521731060600        -0.037135248880
   13         14.874114065000         0.880618442932
   14          2.464751761200        -2.731938162373
   15          1.011327223800         2.818699917995
   16          0.149198520900        -1.172928012093
   17          0.051441873000         0.539337648875
 P 12
    1       2205.350853400000         0.002617976594
    2        522.353006990000         0.021331674845
    3        167.730555420000         0.100830472189
    4         62.670045373000         0.292700681735
    5         25.109749456000         0.474679340951
    6         10.225142681000         0.275950985126
    7         40.713442521000        -0.000523627472
    8          5.624709069600         0.009690660121
    9          2.227994911600         0.016666466354
   10          0.833547416900        -0.005577279038
   11          0.162455000000         0.001505359207
   12          0.047769000000        -0.000575163753
 P 12
    1       2205.350853400000         0.001021900526
    2        522.353006990000         0.008326602230
    3        167.730555420000         0.039358148887
    4         62.670045373000         0.114252732939
    5         25.109749456000         0.185286250964
    6         10.225142681000         0.107714659292
    7         40.713442521000         0.018515112640
    8          5.624709069600        -0.342655176016
    9          2.227994911600        -0.589314958007
   10          0.833547416900        -0.260361211068
   11          0.162455000000        -0.006876696227
   12          0.047769000000         0.001463121471
 P 12
    1       2205.350853400000         0.000172104213
    2        522.353006990000         0.001402331526
    3        167.730555420000         0.006628534843
    4         62.670045373000         0.019241967486
    5         25.109749456000         0.031205135535
    6         10.225142681000         0.018140852464
    7         40.713442521000         0.003966810217
    8          5.624709069600        -0.073412896787
    9          2.227994911600        -0.126259053460
   10          0.833547416900         0.015851993931
   11          0.162455000000         0.451038855975
   12          0.047769000000         0.646207913372
 P 12
    1       2205.350853400000         0.000218162004
    2        522.353006990000         0.001777617468
    3        167.730555420000         0.008402434874
    4         62.670045373000         0.024391420199
    5         25.109749456000         0.039556119911
    6         10.225142681000         0.022995629503
    7         40.713442521000         0.004964473364
    8          5.624709069600        -0.091876432381
    9          2.227994911600        -0.158013535707
   10          0.833547416900        -0.026965744857
   11          0.162455000000         1.248172205519
   12          0.047769000000        -1.145716964668
 P 12
    1       2205.350853400000         0.000849033877
    2        522.353006990000         0.006918058256
    3        167.730555420000         0.032700249073
    4         62.670045373000         0.094925521907
    5         25.109749456000         0.153942874035
    6         10.225142681000         0.089493441315
    7         40.713442521000         0.024968851938
    8          5.624709069600        -0.462093130207
    9          2.227994911600        -0.794730133045
   10          0.833547416900         1.579529147093
   11          0.162455000000        -0.826459260804
   12          0.047769000000         0.327300017824
 D 7
    1         88.554315311000         0.012812208914
    2         25.721525557000         0.079918709291
    3          9.127836762400         0.246532142274
    4          3.431236406400         0.406572086478
    5          1.230892064500         0.393416550784
    6          0.390318451100         0.217785318861
    7          0.124000000000         0.010898703401
 D 7
    1         88.554315311000         0.002926360268
    2         25.721525557000         0.018253756015
    3          9.127836762400         0.056308937105
    4          3.431236406400         0.092862706806
    5          1.230892064500         0.054140299744
    6          0.390318451100         0.083275233269
    7          0.124000000000        -1.037083512494
 D 7
    1         88.554315311000         0.006988761583
    2         25.721525557000         0.043593794717
    3          9.127836762400         0.134477542204
    4          3.431236406400         0.221775604650
    5          1.230892064500         0.316861713775
    6          0.390318451100        -1.341827386431
    7          0.124000000000         0.706951986795
 D 7
    1         88.554315311000         0.018734121221
    2         25.721525557000         0.116857818799
    3          9.127836762400         0.360481402485
    4          3.431236406400         0.594493174778
    5          1.230892064500        -1.421801736625
    6          0.390318451100         0.840304288108
    7          0.124000000000        -0.282914401941
 F 1
    1          2.614000000000         1.000000000000
 end
-------
TIMINGS
-------

Total SCF time: 0 days 0 hours 0 min 19 sec 

Total time                  ....      19.281 sec
Sum of individual times     ....      16.607 sec  ( 86.1%)

SCF preparation             ....       0.441 sec  (  2.3%)
Fock matrix formation       ....      14.140 sec  ( 73.3%)
  Startup                   ....       0.170 sec  (  1.2% of F)
  Split-RI-J                ....       0.812 sec  (  5.7% of F)
  Chain of spheres X        ....       4.565 sec  ( 32.3% of F)
  XC integration            ....       8.207 sec  ( 58.0% of F)
    XC Preparation          ....       0.000 sec  (  0.0% of XC)
    Basis function eval.    ....       0.183 sec  (  2.2% of XC)
    Density eval.           ....       0.088 sec  (  1.1% of XC)
    XC-Functional eval.     ....       0.084 sec  (  1.0% of XC)
    XC-Potential eval.      ....       0.119 sec  (  1.5% of XC)
  CPCM terms                ....       0.884 sec  (  6.2% of F)
Diagonalization             ....       0.000 sec  (  0.0%)
Density matrix formation    ....       0.470 sec  (  2.4%)
Total Energy calculation    ....       0.206 sec  (  1.1%)
Population analysis         ....       0.154 sec  (  0.8%)
Orbital Transformation      ....       0.096 sec  (  0.5%)
Orbital Orthonormalization  ....       0.000 sec  (  0.0%)
DIIS solution               ....       0.465 sec  (  2.4%)
SOSCF solution              ....       0.634 sec  (  3.3%)
Finished LeanSCF after  19.6 sec

Maximum memory used throughout the entire LEANSCF-calculation: 9.2 MB


-------------------------------------------------------------------------------
                          DFT DISPERSION CORRECTION                            
                                                                               
                              DFTD3 V3.1  Rev 1                                
                          USING Becke-Johnson damping                          
-------------------------------------------------------------------------------
The B3LYP functional is recognized
Active option DFTDOPT                   ...         4   

molecular C6(AA) [au] = 340.521234 


            DFT-D V3
 parameters
 s6 scaling factor         :     1.0000 
 a1 scaling factor         :     0.3981 
 s8 scaling factor         :     1.9889 
 a2 scaling factor         :     4.4211 
 ad hoc parameters k1-k3   :    16.0000     1.3333    -4.0000 

 Edisp/kcal,au: -0.000000000000  -0.000000000000 
 E6   /kcal   :  -0.000000000 
 E8   /kcal   :  -0.000000000 
 % E8         :          -nan 

-------------------------   ----------------
Dispersion correction            0.000000000
-------------------------   ----------------


-------------------------   --------------------
FINAL SINGLE POINT ENERGY     -1778.946125634598
-------------------------   --------------------


------------------------------------------------------------------------------
                              ORCA PROPERTY CALCULATIONS
------------------------------------------------------------------------------

GBWName                                 ... zn.gbw
Number of atoms                         ...      1
Number of basis functions               ...     48
Max core memory                         ...   4096 MB

Electric properties:
Dipole moment                           ... YES
Quadrupole moment                       ...  NO
Static polarizability (Dipole/Dipole)   ...  NO
Static polarizability (Dipole/Quad.)    ...  NO
Static polarizability (Quad./Quad.)     ...  NO
Static polarizability (Velocity)        ...  NO
Static hyperpolarizability              ...  NO

Atomic electric properties:
Dipole moment                           ...  NO
Quadrupole moment                       ...  NO
Static polarizability                   ...  NO

Choice of electric origin               ... Center of mass
Position of electric origin             ...     1.381428     1.729081     0.000000

General magnetic properties:
Magnetizability                         ...  NO

EPR properties:
g-Tensor (aka g-matrix)                 ...  NO
Zero-Field splitting spin-orbit         ...  NO
Zero-field splitting spin-spin          ...  NO
Hyperfine couplings                     ...  NO (   0 nuclei)
Quadrupole couplings                    ...  NO (   0 nuclei)
Contact density                         ...  NO (   0 nuclei)

NMR properties:
Chemical shifts                         ...  NO (   0 nuclei)
Spin-rotation constants                 ...  NO (   0 nuclei)
Spin-spin couplings                     ...  NO (   0 nuclei,    0 pairs)

Choice of magnetic origin               ... GIAO
Position of magnetic origin             ...     0.000000     0.000000     0.000000

Properties with geometric perturbations:
SCF Hessian                             ...  NO
IR spectrum                             ...  NO
VCD spectrum                            ...  NO
X-ray spectroscopy properties:
SCF XES/XAS/RIXS spectra                ...  NO

SCF SOC stabilization energy            ...  NO
Diagonal Born-Oppenheimer correction    ...  NO

-------------
DIPOLE MOMENT
-------------

Method             : SCF
Type of density    : Electron Density
Multiplicity       :   1
Irrep              :   0
Energy             : -1778.9461256345978200 Eh
Basis              : AO
                                X                 Y                 Z
Electronic contribution:      0.000001305       0.000000286      -0.000000497
Nuclear contribution   :      0.000000000      -0.000000000       0.000000000
                        -----------------------------------------
Total Dipole Moment    :      0.000001305       0.000000286      -0.000000497
                        -----------------------------------------
Magnitude (a.u.)       :      0.000001425
Magnitude (Debye)      :      0.000003623



--------------------
Rotational spectrum 
--------------------
 
Rotational constants in cm-1:             0.000000             0.000000             0.000000 
Rotational constants in MHz :             0.000000             0.000000             0.000000 

Dipole components along the rotational axes: 
x,y,z [a.u.] :     0.000001     0.000000    -0.000000 
x,y,z [Debye]:     0.000003     0.000001    -0.000001 

 

Dipole moment calculation done in   0.0 sec 

Maximum memory used throughout the entire PROP-calculation: 7.0 MB

--------------------------------
SUGGESTED CITATIONS FOR THIS RUN
--------------------------------

Below you find a list of papers that are relevant to this ORCA run
We neither can nor want to force you to cite these papers, but we appreciate if you do
You receive ORCA, which is the product of decades of hard work by many enthusiastic individuals, for free
The only thing we kindly ask in return is that you cite our papers,
We deeply appreciate it, if you show your appreciation for ORCA by not just citing the generic ORCA reference.

Please note that relegating all ORCA citations to the supporting information does *not* help us.
SI sections are not indexed - citations you put there will not count into any citation statistics
But we need these citations in order to attract the funding resources that allow us to do what we are doing

Therefore, if you are a happy ORCA user, please consider citing a few of the papers listed below in the main body of your paper

In addition to the list printed below, the program has created the file zn.bibtex that contains the list in bibtex format
You can import this file easily into all common literature databanks and citation aid programs


List of essential papers. We consider these as the minimum necessary citations

  1. Neese, F.
     Software update: the ORCA program system, version 6.0
     WIRES Comput. Molec. Sci. 2025 15(1), e70019
     doi.org/10.1002/wcms.7019

List of papers to cite with high priority. The work reported in these papers was absolutely
necessary for this run to complete.
Our perspective: the developers of density functionals and basis sets usually get cited in chemistry papers
Good! But without the algorithms to do something with them, the functionals or basis sets would not do anything.
Hence, in our opinion, the algorithm design and method developments papers are equally worthy of getting cited

  1. Neese, F.
     An improvement of the resolution of the identity approximation for the formation of the Coulomb matrix
     J. Comp. Chem. 2003 24(14), 1740-1747
     doi.org/10.1002/jcc.10318
  2. Neese, F.; Wennmohs, F.; Hansen, A.; Becker, U.
     Efficient, approximate and parallel Hartree-Fock and hybrid DFT calculations. A 'chain-of-spheres' algorithm for the Hartree-Fock exchange
     Chem. Phys. 2009 356(1-3), 98-109
     doi.org/10.1016/j.chemphys.2008.10.036
  3. Grimme, S.; Antony, J.; Ehrlich, S.; Krieg, H.
     A consistent and accurate ab initio parametrization of density functional dispersion correction (DFT-D) for the 94 elements H-Pu
     J. Chem. Phys. 2010 132 , 154104
     doi.org/10.1063/1.3382344
  4. Grimme, S.; Ehrlich, S.; Goerigk, L.
     Effect of the damping function in dispersion corrected density functional theory
     J. Comput. Chem. 2011 32(7), 1456-1465
     doi.org/10.1002/jcc.21759
  5. Stoychev, G.L.; Auer, A.A.; Neese, F.
     Automatic Generation of Auxiliary Basis Sets
     J. Theo. Comp. Chem. 2017 13 , 554-562
     doi.org/10.1021/acs.jctc.6b01041
  6. Garcia-Rates, M.; Neese, F.
     Effect of the Solute Cavity on the Solvation Energy and its Derivatives within the Framework of the Gaussian Charge Scheme
     J. Comput. Chem. 2020 41 , 922-939
     doi.org/10.1002/jcc.26139
  7. Helmich-Paris, B.; de Souza, B.; Neese, F.; Izsák, R.
     An improved chain of spheres for exchange algorithm
     J. Chem. Phys. 2021 155(10), 104109
     doi.org/10.1063/5.0058766
  8. Neese, F.
     The SHARK Integral Generation and Digestion System
     J. Comp. Chem. 2022 44(3), 381
     doi.org/10.1002/jcc.26942

List of suggested additional citations. These are papers that are important in the 'surrounding' of 
of this run, or papers that preceded the highly important papers. If you like your results we are grateful for a citation.

  1. Izsak, R.; Neese, F.
     An overlap fitted chain of spheres exchange method
     J. Chem. Phys. 2011 135 , 144105
     doi.org/10.1063/1.3646921
  2. Izsak, R.; Hansen, A.; Neese, F.
     The resolution of identity and chain of spheres approximations for the LPNO-CCSD singles Fock term
     Molec. Phys. 2012 110 , 2413-2417
     doi.org/10.1080/00268976.2012.687466
  3. Neese, F.
     The ORCA program system
     WIRES Comput. Molec. Sci. 2012 2(1), 73-78
     doi.org/10.1002/wcms.81
  4. Izsak, R.; Neese, F.; Klopper, W.
     Robust fitting techniques in the chain of spheres approximation to the Fock exchange: The role of the complementary space
     J. Chem. Phys. 2013 139 , 
     doi.org/10.1063/1.4819264
  5. Neese, F.
     Software update: the ORCA program system, version 4.0
     WIRES Comput. Molec. Sci. 2018 8(1), 1-6
     doi.org/10.1002/wcms.1327
  6. Neese, F.; Wennmohs, F.; Becker, U.; Riplinger, C.
     The ORCA quantum chemistry program package
     J. Chem. Phys. 2020 152(22), 224108
     doi.org/10.1063/5.0004608
  7. Neese, F.
     Software update: The ORCA program system—Version 5.0
     WIRES Comput. Molec. Sci. 2022 12(1), e1606
     doi.org/10.1002/wcms.1606

List of optional additional citations

  1. Neese, F.
     Approximate second-order SCF convergence for spin unrestricted wavefunctions
     Chem. Phys. Lett. 2000 325(1-3), 93-98
     doi.org/10.1016/s0009-2614(00)00662-x

Timings for individual modules:

Sum of individual times          ...       22.110 sec (=   0.369 min)
Startup calculation              ...        1.667 sec (=   0.028 min)   7.5 %
SCF iterations                   ...       20.216 sec (=   0.337 min)  91.4 %
Property calculations            ...        0.227 sec (=   0.004 min)   1.0 %
                             ****ORCA TERMINATED NORMALLY****
TOTAL RUN TIME: 0 days 0 hours 0 minutes 24 seconds 324 msec
