
                                 *****************
                                 * O   R   C   A *
                                 *****************

                                            #,                                       
                                            ###                                      
                                            ####                                     
                                            #####                                    
                                            ######                                   
                                           ########,                                 
                                     ,,################,,,,,                         
                               ,,#################################,,                 
                          ,,##########################################,,             
                       ,#########################################, ''#####,          
                    ,#############################################,,   '####,        
                  ,##################################################,,,,####,       
                ,###########''''           ''''###############################       
              ,#####''   ,,,,##########,,,,          '''####'''          '####       
            ,##' ,,,,###########################,,,                        '##       
           ' ,,###''''                  '''############,,,                           
         ,,##''                                '''############,,,,        ,,,,,,###''
      ,#''                                            '''#######################'''  
     '                                                          ''''####''''         
             ,#######,   #######,   ,#######,      ##                                
            ,#'     '#,  ##    ##  ,#'     '#,    #''#        ,####,    ,#,          
            ##       ##  ##   ,#'  ##            #'  '#       #'       ,# #          
            ##       ##  #######   ##           ,######,      #####,      #          
            '#,     ,#'  ##    ##  '#,     ,#' ,#      #,     #,   #      #          
             '#######'   ##     ##  '#######'  #'      '#     '####' #    #          



                #########################################################
                #                        -***-                          #
                #          Department of theory and spectroscopy        #
                #                                                       #
                #                      Frank Neese                      #
                #                                                       #
                #     Directorship, Architecture, Infrastructure        #
                #                    SHARK, DRIVERS                     #
                #        Core code/Algorithms in most modules           #
                #                                                       #
                #        Max Planck Institute fuer Kohlenforschung      #
                #                Kaiser Wilhelm Platz 1                 #
                #                 D-45470 Muelheim/Ruhr                 #
                #                      Germany                          #
                #                                                       #
                #                  All rights reserved                  #
                #                        -***-                          #
                #########################################################


                         Program Version 6.1.0  -  RELEASE   -
                                (GIT: $679e74b$)
                          ($2025-06-10 18:02:51 +0200$)


 With contributions from (in alphabetic order):
[Max-Planck-Institut fuer Kohlenforschung]                               
  Daniel Aravena         : Magnetic Suceptibility                        
  Michael Atanasov       : Ab Initio Ligand Field Theory (pilot matlab implementation)
  Alexander A. Auer      : GIAO ZORA, VPT2 properties, NMR spectrum      
  Ute Becker             : All parallelization in ORCA, NUMFREQ, NUMCALC 
  Giovanni Bistoni       : ED, misc. LED, open-shell LED, HFLD           
  Dmytro Bykov           : pre 5.0 version of the SCF Hessian            
  Marcos Casanova-Páez   : Triplet and SCS-CIS(D). UHF-(DLPNO)-IP/EA/STEOM-CCSD. UHF-CVS-IP/STEOM-CCSD   
  Vijay G. Chilkuri      : MRCI spin determinant printing, contributions to CSF-ICE 
  Pauline Colinet        : FMM embedding                                 
  Dipayan Datta          : RHF DLPNO-CCSD density                        
  Achintya Kumar Dutta   : EOM-CC, STEOM-CC                              
  Nicolas Foglia         : Exact transition moments, OPA infrastructure, MCD improvements    
  Dmitry Ganyushin       : Spin-Orbit,Spin-Spin,Magnetic field MRCI      
  Miquel Garcia-Rates    : C-PCM and meta-GGA Hessian, CCSD/C-PCM, Gaussian charge scheme 
  Tiago L. C. Gouveia    : GS-ROHF, GS-ROCIS                             
  Yang Guo               : DLPNO-NEVPT2, F12-NEVPT2, CIM, IAO-localization        
  Andreas Hansen         : Spin unrestricted coupled pair/coupled cluster methods 
  Ingolf Harden          : AUTO-CI MPn and infrastructure                
  Benjamin Helmich-Paris : MC-RPA, TRAH-(SCF,CASSCF), AVAS, COSX integrals, SCF dyn. polar., MC-PDFT, srDFT 
  Lee Huntington         : MR-EOM, pCC                                   
  Robert Izsak           : Overlap fitted RIJCOSX, COSX-SCS-MP3, EOM     
  Riya Kayal             : Wick's Theorem for AUTO-CI, AUTO-CI UHF-CCSDT 
  Emily Kempfer          : AUTO-CI RHF CISDT and CCSDT, approximate NEVPT4
  Christian Kollmar      : KDIIS, OOCD, Brueckner-CCSD(T), CCSD density, CASPT2, CASPT2-K, improved NEVPT2 
  Axel Koslowski         : Symmetry handling                             
  Simone Kossmann        : meta-GGA functionals, TD-DFT gradient, OOMP2, (MP2 Hessian; deprecated post 5.0) 
  Lucas Lang             : DCDCAS, Hyperfine gauge corrections, ICE-SOC+SSC
  Marvin Lechner         : AUTO-CI (C++ implementation), FIC-MRCC        
  Spencer Leger          : CASSCF response                               
  Dagmar Lenk            : GEPOL surface, SMD, ORCA-2-JSON               
  Dimitrios Liakos       : Extrapolation schemes; Compound Job, Property file
  Dimitrios Manganas     : Further ROCIS development; embedding schemes. LFT, Crystal Embedding 
  Dimitrios Pantazis     : SARC Basis sets                               
  Anastasios Papadopoulos: AUTO-CI, single reference methods and gradients 
  Taras Petrenko         : pre 6.0 DFT Hessian and TD-DFT gradient,  ECA, NRVS 
  Petra Pikulova         : Analytic Raman intensities                    
  Peter Pinski           : DLPNO-MP2, DLPNO-MP2 Gradient                 
  Shashank Vittal Rao    : ES-AILFT, MagRelax                            
  Christoph Reimann      : Effective Core Potentials                     
  Marius Retegan         : Local ZFS, SOC                                
  Christoph Riplinger    : Optimizer, TS searches, QM/MM, DLPNO-CCSD(T), (RO)-DLPNO pert. Triples 
  Michael Roemelt        : Original ROCIS implementation, recursive CI coupling coefficients
  Masaaki Saitow         : Open-shell DLPNO-CCSD energy and density      
  Barbara Sandhoefer     : DKH picture change effects                    
  Yorick L. A. Schmerwitz: GMF and freeze-and-release deltaSCF, NEB S-IDPP initial path                    
  Kantharuban Sivalingam : CASSCF convergence/infrastructure, NEVPT2, NEVPT3, NEVPT4(SD), FIC-MRCI and CEPA variants
  Bernardo de Souza      : ESD, SOC TD-DFT                               
  Georgi L. Stoychev     : AutoAux, RI-MP2 NMR, DLPNO-MP2 response, X2C  
  Van Anh Tran           : RI-MP2 g-tensors                              
  Willem Van den Heuvel  : Paramagnetic NMR                              
  Zikuan Wang            : NOTCH, Electric field optimization            
  Frank Wennmohs         : Technical directorship and infrastructure     
  Hang Xu                : AUTO-CI-Response properties                   
                                                                         
[FACCTs GmbH]                                                            
  Markus Bursch, Nicolas Foglia, Miquel Garcia-Rates, Ingolf Harden, Hagen Neugebauer, Anastasios Papadopoulos, 
  Christoph Riplinger, Bernardo de Souza, Georgi L. Stoychev                                                    
                                                                 
  APM, various basis sets, CI-OPT, improved COSX, DLPNO-Multilevel,           
  DOCKER, DRACO, updates on ESD, Fragmentator, GOAT, IRC, LR-CPCM, L-BFGS, MBIS, meta-GGA TD-DFT gradient, ML-optimized integration grids, 
  MM, NACMEs, nearIR, NEB, NEB-TS, NL-DFT gradient (VV10), 2- and 3-layer-ONIOM, interface openCOSMO-RS, QMMM,   
  Crystal-QMMM, RESP, rigid body optimization, SF, symmetry and pop. for TD-DFT, various functionals, SOLVATOR                                   
                                                                         
[Other institutions]                                                     
  V. Asgeirsson          : NEB                                           
  Christoph Bannwarth    : sTDA-DFT, sTD-DFT, PBEh-3c, B97-3c, D3        
  Giovanni Bistoni       : ETS/NOCV, ADLD/ADEX, COVALED                  
  Martin Brehm           : Molecular dynamics                            
  Ronald Cardenas        : ETS/NOCV                                      
  Martina Colucci        : COVALED                                       
  Sebastian Ehlert       : rSCAN, r2SCAN, r2SCAN-3c, D4, dhf basis sets  
  Marvin Friede          : D4 for Fr, Ra, Ac-Lr                          
  Lars Goerigk           : TD-DFT with DH, B97 family of functionals     
  Stefan Grimme          : VdW corrections, initial TS optimization, DFT functionals, gCP, sTDA/sTD-DF 
  Waldemar Hujo          : DFT-NL                                        
  H. Jonsson             : NEB                                           
  Holger Kruse           : gCP                                           
  Marcel Mueller         : wB97X-3c, vDZP basis set                      
  Hagen Neugebauer       : wr2SCAN, Native XTB                           
  Gianluca Regni         : ADLD/ADEX                                     
  Tobias Risthaus        : pre 6.0 range-separated hybrid DFT and stability analysis
  Lukas Wittmann         : regularized MP2, r2SCAN double-hybrids, wr2SCAN        
                                                                         
We gratefully acknowledge several colleagues who have allowed us to      
interface, adapt or use parts of their codes:                            
  Ed Valeev, F. Pavosevic, A. Kumar             : LibInt (2-el integral package), F12 methods 
  Garnet Chan, S. Sharma, J. Yang, R. Olivares  : DMRG                   
  Ulf Ekstrom                                   : XCFun DFT Library      
  Mihaly Kallay                                 : mrcc  (arbitrary order and MRCC methods)
  Frank Weinhold                                : gennbo (NPA and NBO analysis)           
  Simon Mueller                                 : openCOSMO-RS                            
  Christopher J. Cramer and Donald G. Truhlar   : smd solvation model                     
  S Lehtola, MJT Oliveira, MAL Marques          : LibXC Library                           
  Liviu Ungur et al                             : ANISO software                          


 Your calculation uses the libint2 library for the computation of 2-el integrals
 For citations please refer to: http://libint.valeyev.net

 Your ORCA version has been built with support for libXC version: 7.0.0
 For citations please refer to: https://libxc.gitlab.io

 This ORCA versions uses:
   CBLAS   interface :  Fast vector & matrix operations
   LAPACKE interface :  Fast linear algebra routines
   SCALAPACK package :  Parallel linear algebra routines
   Shared memory     :  Shared parallel matrices
   BLAS/LAPACK       :  OpenBLAS 0.3.29  USE64BITINT DYNAMIC_ARCH NO_AFFINITY Haswell SINGLE_THREADED
        Core in use  :  Haswell
   Copyright (c) 2011-2014, The OpenBLAS Project


  ***********************************
  * Starting time: Sun Mar 22 04:33:10 2026
  * Host name:     DESKTOP-3NRPUAP
  * Process ID:    5201
  * Working dir.:  /mnt/d/POSTDOC/for-mimi/zn-dock/reopt/freq
  ***********************************

Your calculation utilizes the atom-pairwise dispersion correction
with the Becke-Johnson damping scheme (D3BJ)


Your calculation employs the composite approach B97-3c by Grimme and coworkers.
Please cite in your paper:
Brandenburg, J. G.; Bannwarth, C.; Hansen A.; Grimme, S. J. Chem. Phys. 2018, 148, 064104 
   

XCFun DFT library Copyright 2009-2010 Ulf Ekstrom and contributors.
See http://admol.org/xcfun for more information.
This is free software; see the source code for copying conditions.
There is ABSOLUTELY NO WARRANTY; not even for MERCHANTABILITY or FITNESS FOR A PARTICULAR PURPOSE.
For details see the documentation.
Scientific users of this library should cite U. Ekstrom, L. Visscher, R. Bast, A. J. Thorvaldsen and K. Ruud;
J.Chem.Theor.Comp. 2010, DOI: 10.1021/ct100117s
XCFun Version 0.99 

================================================================================

----- Orbital basis set information -----
Your calculation utilizes the basis: def2-mTZVP
----- AuxJ basis set information -----
Your calculation utilizes the auxiliary basis: def2-mTZVP/J
================================================================================
                                        WARNINGS
                       Please study these warnings very carefully!
================================================================================


================================================================================
                                       INPUT FILE
================================================================================
NAME = zn.inp
|  1> ! B97-3c Freq CPCM(Water)
|  2> ! PrintMOs
|  3> 
|  4> * xyz 2 1
|  5> Zn         0.73102        0.91499        0.00000
|  6> **                         ****END OF INPUT****
================================================================================

                       ****************************
                       * Single Point Calculation *
                       ****************************

---------------------------------
CARTESIAN COORDINATES (ANGSTROEM)
---------------------------------
  Zn     0.731020    0.914990    0.000000

----------------------------
CARTESIAN COORDINATES (A.U.)
----------------------------
  NO LB      ZA    FRAG     MASS         X           Y           Z
   0 Zn   30.0000    0    65.380    1.381428    1.729081    0.000000

--------------------------------
INTERNAL COORDINATES (ANGSTROEM)
--------------------------------
 Zn     0   0   0     0.000000000000     0.00000000     0.00000000

---------------------------
INTERNAL COORDINATES (A.U.)
---------------------------
 Zn     0   0   0     0.000000000000     0.00000000     0.00000000

---------------------
BASIS SET INFORMATION
---------------------
There are 1 groups of distinct atoms

 Group   1 Type Zn  : 17s11p6d contracted to 6s4p3d pattern {842111/6311/411}

Atom   0Zn   basis set group =>   1
---------------------------------
AUXILIARY/J BASIS SET INFORMATION
---------------------------------
There are 1 groups of distinct atoms

 Group   1 Type Zn  : 19s5p5d3f3g contracted to 8s5p5d2f3g pattern {121111111/11111/11111/21/111}

Atom   0Zn   basis set group =>   1
------------------------------------------------------------------------------
                             ORCA STARTUP CALCULATIONS
                           -- RI-GTO INTEGRALS CHOSEN --
------------------------------------------------------------------------------
------------------------------------------------------------------------------
                   ___                                                        
                  /   \      - P O W E R E D   B Y -                         
                 /     \                                                     
                 |  |  |   _    _      __       _____    __    __             
                 |  |  |  | |  | |    /  \     |  _  \  |  |  /  |          
                  \  \/   | |  | |   /    \    | | | |  |  | /  /          
                 / \  \   | |__| |  /  /\  \   | |_| |  |  |/  /          
                |  |  |   |  __  | /  /__\  \  |    /   |      \           
                |  |  |   | |  | | |   __   |  |    \   |  |\   \          
                \     /   | |  | | |  |  |  |  | |\  \  |  | \   \       
                 \___/    |_|  |_| |__|  |__|  |_| \__\ |__|  \__/        
                                                                              
                      - O R C A' S   B I G   F R I E N D -                    
                                      &                                       
                       - I N T E G R A L  F E E D E R -                       
                                                                              
 v1 FN, 2020, v2 2021, v3 2022-2024                                           
------------------------------------------------------------------------------


----------------------
SHARK INTEGRAL PACKAGE
----------------------

Number of atoms                             ...      1
Number of basis functions                   ...     33
Number of shells                            ...     13
Maximum angular momentum                    ...      2
Integral batch strategy                     ... SHARK/LIBINT Hybrid
RI-J (if used) integral strategy            ... SPLIT-RIJ (Revised 2003 algorithm where possible)
Printlevel                                  ...      1
Contraction scheme used                     ... SEGMENTED contraction
Prescreening option                         ... SCHWARTZ
   Thresh                                   ... 1.000e-10
   Tcut                                     ... 1.000e-11
   Tpresel                                  ... 1.000e-11 
Coulomb Range Separation                    ... NOT USED
Exchange Range Separation                   ... NOT USED
Multipole approximations                    ... NOT USED
Finite Nucleus Model                        ... NOT USED
CABS basis                                  ... NOT available
Auxiliary Coulomb fitting basis             ... AVAILABLE
   # of basis functions in Aux-J            ...     89
   # of shells in Aux-J                     ...     23
   Maximum angular momentum in Aux-J        ...      4
Auxiliary J/K fitting basis                 ... NOT available
Auxiliary Correlation fitting basis         ... NOT available
Auxiliary 'external' fitting basis          ... NOT available

Checking pre-screening integrals            ... done (  0.0 sec) Dimension = 13
   => SHARK Basis and OBASIS are compatible. Storing Pre-screening
Shell pair information
Shell pair cut-off parameter TPreSel        ...   1.0e-11
Total number of shell pairs                 ...        91
Shell pairs after pre-screening             ...        91
Total number of primitive shell pairs       ...       654
Primitive shell pairs kept                  ...       654
          la=0 lb=0:     21 shell pairs
          la=1 lb=0:     24 shell pairs
          la=1 lb=1:     10 shell pairs
          la=2 lb=0:     18 shell pairs
          la=2 lb=1:     12 shell pairs
          la=2 lb=2:      6 shell pairs

Checking whether 4 symmetric matrices of dimension 33 fit in memory
:Max Core in MB      =   4096.00
 MB in use           =      3.31
 MB left             =   4092.69
 MB needed           =      0.02
 Data fit in memory  = YES
Calculating RI/J V-Matrix + Cholesky decomp.... done (  0.0 sec)
Calculating Nuclear repulsion               ... done (  0.0 sec) ENN=      0.000000000000 Eh

Diagonalization of the overlap matrix:
Smallest eigenvalue                        ... 6.068e-02
Time for diagonalization                   ...    0.003 sec
Threshold for overlap eigenvalues          ... 1.000e-07
Number of eigenvalues below threshold      ... 0
Time for construction of square roots      ...    0.014 sec
Total time needed                          ...    0.043 sec

-------------------
DFT GRID GENERATION
-------------------

General Integration Accuracy     IntAcc      ... 4.388
Radial Grid Type                 RadialGrid  ... OptM3 with GC (2021)
Angular Grid (max. ang.)         AngularGrid ... 4 (Lebedev-302)
Angular grid pruning method      GridPruning ... 4 (adaptive)
Weight generation scheme         WeightScheme... mBecke (2022)
Basis function cutoff            BFCut       ... 1.0000e-10
Integration weight cutoff        WCut        ... 1.0000e-14
Partially contracted basis set               ... off
Rotationally invariant grid construction     ... off
Angular grids for H and He will be reduced by one unit
Core-polarized basis detected: some atoms will have their core
                               angular grid increased.

Total number of grid points                  ...    11336
Total number of batches                      ...      178
Average number of points per batch           ...       63
Average number of grid points per atom       ...    11336
Grids setup in   0.5 sec
Initializing property integral containers    ... done (  0.0 sec)

SHARK setup successfully completed in   0.9 seconds

Maximum memory used throughout the entire STARTUP-calculation: 13.1 MB
-------------------------------------------------------------------------------
                                 ORCA GUESS
                   Start orbitals & Density for SCF / CASSCF
-------------------------------------------------------------------------------

------------
SCF SETTINGS
------------
Hamiltonian:
 Density Functional     Method          .... DFT(GTOs)
 Exchange Functional    Exchange        .... B973C
 Correlation Functional Correlation     .... B973C
 Gradients option       PostSCFGGA      .... off
 RI-approximation to the Coulomb term is turned on
   Number of AuxJ basis functions       .... 89


General Settings:
 Integral files         IntName         .... zn
 Hartree-Fock type      HFTyp           .... RHF
 Total Charge           Charge          ....    2
 Multiplicity           Mult            ....    1
 Number of Electrons    NEL             ....   28
 Basis Dimension        Dim             ....   33
 Nuclear Repulsion      ENuc            ....      0.0000000000 Eh

Convergence Acceleration:
 AO-DIIS                CNVDIIS         .... on
   Start iteration      DIISMaxIt       ....    12
   Startup error        DIISStart       ....  0.200000
   # of expansion vecs  DIISMaxEq       ....     5
   Bias factor          DIISBfac        ....   1.050
   Max. coefficient     DIISMaxC        ....  10.000
 MO-DIIS                CNVKDIIS        .... off
 Trust-Rad. Augm. Hess. CNVTRAH         .... auto
   Auto Start mean grad. ratio tolernc. ....  1.125000
   Auto Start start iteration           ....    50
   Auto Start num. interpolation iter.  ....    10
   Max. Number of Micro iterations      ....    24
   Max. Number of Macro iterations      .... Maxiter - #DIIS iter
   Number of Davidson start vectors     ....     2
   Converg. threshold    (grad. norm)   ....   5.000e-05
   Grad. Scal. Fac. for Micro threshold ....   0.100
   Minimum threshold for Micro iter.    ....   1.000e-02
   NR start threshold (gradient norm)   ....   1.000e-04
   Initial trust radius                 ....   0.400
   Minimum AH scaling param. (alpha)    ....   1.000
   Maximum AH scaling param. (alpha)    .... 1000.000
   Quad. conv. algorithm                .... NR
   White noise on init. David. guess    .... on
   Maximum white noise                  ....   0.010
   Pseudo random numbers                .... off
   Inactive MOs                         .... canonical
   Orbital update algorithm             .... Taylor
   Preconditioner                       .... Diag
   Full preconditioner red. dimension   ....   250
 SOSCF                 CNVSOSCF           .... on
   Start iteration     SOSCFMaxIt         ....   150
   Startup grad/error  SOSCFStart         ....  0.003300
   Hessian update      SOSCFHessUp        .... L-BFGS
   Autom. constraints  SOSCFAutoConstrain .... off
 Level Shifting         CNVShift        .... on
   Level shift para.    LevelShift      ....    0.2500
   Turn off err/grad.   ShiftErr        ....    0.0010
 Zerner damping         CNVZerner       .... off
 Static damping         CNVDamp         .... on
   Fraction old density DampFac         ....    0.7000
   Max. Damping (<1)    DampMax         ....    0.9800
   Min. Damping (>=0)   DampMin         ....    0.0000
   Turn off err/grad.   DampErr         ....    0.1000

SCF Procedure:
 Maximum # iterations   MaxIter         ....   125
 SCF integral mode      SCFMode         .... Direct
   Integral package                     .... SHARK and LIBINT hybrid scheme
 Reset frequency        DirectResetFreq ....    20
 Integral Threshold     Thresh          ....  1.000e-10 Eh
 Primitive CutOff       TCut            ....  1.000e-11 Eh

Convergence Tolerance:
 Convergence Check Mode ConvCheckMode   .... Total+1el-Energy
 Convergence forced     ConvForced      .... 0
 Energy Change          TolE            ....  1.000e-06 Eh
 1-El. energy change                    ....  1.000e-03 Eh
 Orbital Gradient       TolG            ....  5.000e-05
 Orbital Rotation angle TolX            ....  5.000e-05
 DIIS Error             TolErr          ....  1.000e-06

--------------------------------
INITIAL GUESS: MINIMAL BASIS EHT
--------------------------------
The minimal basis has 18 functions
EHT matrix was diagonalized
Basis set overlap was calculated now projecting the orbitals
Using GuessMode=FMatrix for the initial guess
C*T matrix was formed
Effective Fockian was calculated
Effective Fockian was diagonalized
Initial density was built
                      ------------------
                      INITIAL GUESS DONE
                      ------------------
             **** ENERGY FILE WAS UPDATED (zn.en.tmp) ****
Finished Guess after   0.4 sec
Maximum memory used throughout the entire GUESS-calculation: 5.9 MB

-------------------------------------------------------------------------------------------
                                      ORCA LEAN-SCF
                              memory conserving SCF solver
-------------------------------------------------------------------------------------------

--------------------
CPCM SOLVATION MODEL
--------------------
CPCM parameters:
  Epsilon                                         ...      80.1510
  Refrac                                          ...       1.3328
  Rsolv                                           ...       1.3000
  Surface type                                    ... GAUSSIAN VDW
  Discretization scheme                           ... Constant charge density
    Threshold for H atoms                         ...       5.0000 (charges/Ang^2)
    Threshold for non-H atoms                     ...       5.0000 (charges/Ang^2)
  Epsilon function type                           ...         CPCM
Solvent:                                          ... WATER
Radii:
  Scheme                                          ... Element-dependent radii
  Radius for Zn used is    3.1521 Bohr (=   1.6680 Ang.)
Calculating surface                               ...        done! (  0.0s)
Cavity surface points                             ...          194
Cavity Volume                                     ...     131.1817
Cavity Surface-area                               ...     124.8532
Calculating surface distance matrix               ...        done! (  0.0s)
Performing Cholesky decomposition & store         ...        done! (  0.0s)
Overall time for CPCM initialization              ...                 0.0s

----------------------------------------D-I-I-S--------------------------------------------
Iteration    Energy (Eh)           Delta-E    RMSDP     MaxDP     DIISErr   Damp  Time(sec)
-------------------------------------------------------------------------------------------
               ***  Starting incremental Fock matrix formation  ***
    1    -1777.3464472117375408     0.00e+00  4.01e-02  3.11e-01  1.37e+00  0.700   0.6
Warning: op=0 Small HOMO/LUMO gap (  -0.504) - skipping pre-diagonalization
         LevelShift set to 0.604 Eh
         Will do a full diagonalization
    2    -1778.0427684057201532    -6.96e-01  2.18e-02  3.56e-01  6.50e-01  0.700   0.7
    3    -1778.1754632875845346    -1.33e-01  1.24e-02  1.44e-01  5.30e-01  0.700   0.6
    4    -1778.6376917478794439    -4.62e-01  8.28e-03  1.07e-01  3.05e-01  0.700   0.6
    5    -1778.9286138192401268    -2.91e-01  6.22e-03  7.67e-02  2.49e-01  0.700   0.6
    6    -1779.1305453277300330    -2.02e-01  4.72e-03  5.44e-02  2.00e-01  0.700   0.6
                               ***Turning on AO-DIIS***
    7    -1779.2715042915494905    -1.41e-01  3.51e-03  3.84e-02  1.45e-01  0.700   0.7
    8    -1779.3695930941939878    -9.81e-02  2.53e-03  2.70e-02  9.83e-02  0.700   0.7
    9    -1779.4379366793261852    -6.83e-02  5.77e-03  6.32e-02  6.43e-02  0.000   0.7
   10    -1779.5967273024007227    -1.59e-01  4.01e-04  3.37e-03  7.63e-03  0.000   0.7
   11    -1779.5967667247437021    -3.94e-05  1.82e-04  2.14e-03  6.05e-03  0.000   0.7
                              *** Initializing SOSCF ***
---------------------------------------S-O-S-C-F--------------------------------------
Iteration    Energy (Eh)           Delta-E    RMSDP     MaxDP     MaxGrad    Time(sec)
--------------------------------------------------------------------------------------
   12    -1779.5967997336142616    -3.30e-05  9.21e-05  1.45e-03  1.65e-03     0.8
               *** Restarting incremental Fock matrix formation ***
   13    -1779.5968053895155663    -5.66e-06  1.60e-04  2.61e-03  6.66e-04     0.8
   14    -1779.5968090131045756    -3.62e-06  9.61e-06  7.73e-05  8.15e-05     1.0
   15    -1779.5968090049191233     8.19e-09  4.71e-06  3.16e-05  8.34e-05     1.0
                 **** Energy Check signals convergence ****

               *****************************************************
               *                     SUCCESS                       *
               *           SCF CONVERGED AFTER  15 CYCLES          *
               *****************************************************

             **** ENERGY FILE WAS UPDATED (zn.en.tmp) ****

----------------
TOTAL SCF ENERGY
----------------

Total Energy       :      -1779.59680902626701 Eh          -48425.29107 eV

Components:
Nuclear Repulsion  :          0.00000000000000 Eh               0.00000 eV
Electronic Energy  :      -1778.96958778483122 Eh          -48408.22351 eV
One Electron Energy:      -2461.84388127983084 Eh          -66990.17772 eV
Two Electron Energy:        682.87429349499973 Eh           18581.95421 eV
CPCM Dielectric    :         -0.62722124143613 Eh             -17.06756 eV

Virial components:
Potential Energy   :      -3556.70530707029411 Eh          -96782.87175 eV
Kinetic Energy     :       1777.10849804402710 Eh           48357.58068 eV
Virial Ratio       :          2.00140020206137

DFT components:
N(Alpha)           :       14.000000008360 electrons
N(Beta)            :       14.000000008360 electrons
N(Total)           :       28.000000016720 electrons
E(XC)              :      -71.367138246411 Eh       

CPCM Solvation Model Properties:
Surface-charge          :         -2.00101542578512
Corrected charge        :         -2.00000000000000
Outlying charge corr.   :          0.00000016151626 Eh               0.00000 eV
Free-energy (cav+disp)  :  This term is not implemented in the current solvation scheme

---------------
SCF CONVERGENCE
---------------

  Last Energy change         ...   -8.1855e-09  Tolerance :   1.0000e-06
  Last MAX-Density change    ...    3.1626e-05  Tolerance :   1.0000e-05
  Last RMS-Density change    ...    4.7075e-06  Tolerance :   1.0000e-06
  Last DIIS Error            ...    1.6485e-03  Tolerance :   1.0000e-06
  Last Orbital Gradient      ...    8.3407e-05  Tolerance :   5.0000e-05
  Last Orbital Rotation      ...    1.9351e-05  Tolerance :   5.0000e-05


----------------
ORBITAL ENERGIES
----------------

  NO   OCC          E(Eh)            E(eV) 
   0   2.0000    -345.666862     -9406.0735 
   1   2.0000     -41.801745     -1137.4833 
   2   2.0000     -36.902744     -1004.1747 
   3   2.0000     -36.902744     -1004.1747 
   4   2.0000     -36.902743     -1004.1747 
   5   2.0000      -4.730742      -128.7300 
   6   2.0000      -3.168023       -86.2063 
   7   2.0000      -3.168023       -86.2063 
   8   2.0000      -3.168023       -86.2063 
   9   2.0000      -0.518765       -14.1163 
  10   2.0000      -0.518765       -14.1163 
  11   2.0000      -0.518765       -14.1163 
  12   2.0000      -0.518765       -14.1163 
  13   2.0000      -0.518765       -14.1163 
  14   0.0000      -0.189623        -5.1599 
  15   0.0000       0.063944         1.7400 
  16   0.0000       0.063945         1.7400 
  17   0.0000       0.063945         1.7400 
  18   0.0000       0.159309         4.3350 
  19   0.0000       0.869324        23.6555 
  20   0.0000       0.869324        23.6555 
  21   0.0000       0.869325        23.6555 
  22   0.0000       0.869325        23.6555 
  23   0.0000       0.869325        23.6555 
  24   0.0000       2.009519        54.6818 
  25   0.0000       2.009519        54.6818 
  26   0.0000       2.009519        54.6818 
  27   0.0000       3.208106        87.2970 
  28   0.0000       4.344027       118.2070 
  29   0.0000       4.344027       118.2070 
  30   0.0000       4.344027       118.2070 
  31   0.0000       4.344027       118.2070 
  32   0.0000       4.344027       118.2070 
------------------
MOLECULAR ORBITALS (RHF, ROHF)
------------------
                      0         1         2         3         4         5   
                 -345.66686 -41.80175 -36.90274 -36.90274 -36.90274  -4.73074
                   2.00000   2.00000   2.00000   2.00000   2.00000   2.00000
                  --------  --------  --------  --------  --------  --------
  0Zn  1s        -0.997565 -0.320570 -0.000000 -0.000000 -0.000000  0.120958
  0Zn  2s        -0.007451  1.037723  0.000000  0.000000  0.000000 -0.470315
  0Zn  3s         0.002971  0.043773 -0.000000 -0.000000 -0.000000  0.631717
  0Zn  4s        -0.001954 -0.016105  0.000000  0.000000  0.000000  0.479091
  0Zn  5s         0.000525  0.003553 -0.000000 -0.000000  0.000000  0.016049
  0Zn  6s        -0.000237 -0.001583  0.000000  0.000000 -0.000000 -0.005556
  0Zn  1pz       -0.000000  0.000000  0.703079 -0.193711 -0.670745 -0.000000
  0Zn  1px        0.000000 -0.000000  0.697821  0.224496  0.666627  0.000000
  0Zn  1py       -0.000000  0.000000 -0.021645  0.945421 -0.295726 -0.000000
  0Zn  2pz        0.000000  0.000000  0.017325 -0.004773 -0.016529  0.000000
  0Zn  2px       -0.000000 -0.000000  0.017196  0.005532  0.016427 -0.000000
  0Zn  2py        0.000000  0.000000 -0.000533  0.023297 -0.007287  0.000000
  0Zn  3pz       -0.000000 -0.000000 -0.003971  0.001094  0.003788  0.000000
  0Zn  3px        0.000000  0.000000 -0.003941 -0.001268 -0.003765 -0.000000
  0Zn  3py       -0.000000 -0.000000  0.000122 -0.005340  0.001670 -0.000000
  0Zn  1dz2      -0.000000  0.000000  0.000000 -0.000000 -0.000000  0.000000
  0Zn  1dxz       0.000000 -0.000000 -0.000000  0.000000  0.000000 -0.000001
  0Zn  1dyz      -0.000000  0.000000  0.000000  0.000000 -0.000000  0.000000
  0Zn  1dx2y2    -0.000000  0.000000 -0.000000 -0.000000 -0.000000  0.000000
  0Zn  1dxy       0.000000 -0.000000  0.000000 -0.000000  0.000000 -0.000000
  0Zn  2dz2       0.000000 -0.000000 -0.000000  0.000000  0.000000 -0.000000
  0Zn  2dxz      -0.000000  0.000000 -0.000000 -0.000000 -0.000000  0.000001
  0Zn  2dyz       0.000000 -0.000000 -0.000000 -0.000000  0.000000 -0.000000
  0Zn  2dx2y2     0.000000 -0.000000  0.000000  0.000000  0.000000 -0.000000
  0Zn  2dxy      -0.000000  0.000000 -0.000000  0.000000 -0.000000  0.000000
  0Zn  3dz2      -0.000000  0.000000  0.000000 -0.000000 -0.000000  0.000000
  0Zn  3dxz       0.000000 -0.000000 -0.000000  0.000000  0.000000 -0.000000
  0Zn  3dyz      -0.000000  0.000000  0.000000  0.000000 -0.000000  0.000000
  0Zn  3dx2y2    -0.000000  0.000000 -0.000000 -0.000000 -0.000000  0.000000
  0Zn  3dxy       0.000000 -0.000000  0.000000 -0.000000  0.000000 -0.000000
  0Zn  4pz        0.000000  0.000000  0.000769 -0.000212 -0.000733 -0.000000
  0Zn  4px       -0.000000 -0.000000  0.000763  0.000245  0.000729  0.000000
  0Zn  4py        0.000000  0.000000 -0.000024  0.001034 -0.000323 -0.000000
                      6         7         8         9        10        11   
                  -3.16802  -3.16802  -3.16802  -0.51877  -0.51877  -0.51876
                   2.00000   2.00000   2.00000   2.00000   2.00000   2.00000
                  --------  --------  --------  --------  --------  --------
  0Zn  1s         0.000000  0.000000 -0.000000  0.000000  0.000000  0.000000
  0Zn  2s        -0.000000 -0.000000  0.000000  0.000000  0.000000  0.000000
  0Zn  3s         0.000000  0.000000 -0.000000  0.000002  0.000000  0.000000
  0Zn  4s        -0.000000  0.000000 -0.000000 -0.000003 -0.000000 -0.000000
  0Zn  5s        -0.000000 -0.000000  0.000000  0.000002  0.000000  0.000000
  0Zn  6s         0.000000 -0.000000 -0.000000  0.000000  0.000000  0.000000
  0Zn  1pz       -0.274424  0.075614 -0.261805  0.000000 -0.000000  0.000000
  0Zn  1px       -0.272374 -0.087620  0.260198  0.000000 -0.000000  0.000000
  0Zn  1py        0.008441 -0.369016 -0.115428 -0.000000 -0.000000 -0.000000
  0Zn  2pz        0.623629 -0.171833  0.594951 -0.000000  0.000000 -0.000000
  0Zn  2px        0.618969  0.199116 -0.591300 -0.000000  0.000000 -0.000000
  0Zn  2py       -0.019183  0.838589  0.262309  0.000000  0.000000  0.000000
  0Zn  3pz        0.183682 -0.050611  0.175233  0.000000  0.000000  0.000000
  0Zn  3px        0.182310  0.058647 -0.174158  0.000000 -0.000000  0.000000
  0Zn  3py       -0.005650  0.246995  0.077259  0.000000 -0.000000  0.000000
  0Zn  1dz2       0.000000 -0.000000  0.000000 -0.245638 -0.215712  0.515548
  0Zn  1dxz      -0.000000  0.000000 -0.000000 -0.398974 -0.001817 -0.001737
  0Zn  1dyz       0.000000  0.000000  0.000000 -0.074942  0.419767  0.172269
  0Zn  1dx2y2    -0.000000 -0.000000  0.000000 -0.426682  0.131829 -0.290056
  0Zn  1dxy       0.000000 -0.000000 -0.000000  0.081563  0.416805  0.185054
  0Zn  2dz2       0.000000  0.000000 -0.000000 -0.149616 -0.131388  0.314014
  0Zn  2dxz      -0.000000  0.000000 -0.000000 -0.243012 -0.001106 -0.001058
  0Zn  2dyz       0.000000  0.000000  0.000000 -0.045647  0.255677  0.104927
  0Zn  2dx2y2    -0.000000 -0.000000  0.000000 -0.259889  0.080296 -0.176669
  0Zn  2dxy       0.000000 -0.000000 -0.000000  0.049679  0.253873  0.112714
  0Zn  3dz2       0.000000 -0.000000  0.000000 -0.082899 -0.072800  0.173991
  0Zn  3dxz      -0.000000  0.000000 -0.000000 -0.134648 -0.000613 -0.000586
  0Zn  3dyz      -0.000000  0.000000 -0.000000 -0.025292  0.141665  0.058138
  0Zn  3dx2y2    -0.000000  0.000000  0.000000 -0.143999  0.044491 -0.097890
  0Zn  3dxy      -0.000000 -0.000000 -0.000000  0.027526  0.140666  0.062453
  0Zn  4pz        0.003819 -0.001052  0.003644 -0.000000 -0.000000  0.000000
  0Zn  4px        0.003790  0.001219 -0.003621 -0.000000  0.000000  0.000000
  0Zn  4py       -0.000117  0.005135  0.001606 -0.000000 -0.000000 -0.000000
                     12        13        14        15        16        17   
                  -0.51876  -0.51876  -0.18962   0.06394   0.06394   0.06394
                   2.00000   2.00000   0.00000   0.00000   0.00000   0.00000
                  --------  --------  --------  --------  --------  --------
  0Zn  1s        -0.000000 -0.000000  0.035554 -0.000000 -0.000000 -0.000000
  0Zn  2s        -0.000000 -0.000000 -0.102800  0.000000  0.000000  0.000000
  0Zn  3s        -0.000001 -0.000004  0.284607 -0.000000 -0.000000 -0.000000
  0Zn  4s         0.000002  0.000006  0.232967 -0.000000 -0.000000  0.000000
  0Zn  5s        -0.000001 -0.000004 -0.945910  0.000000  0.000000  0.000000
  0Zn  6s        -0.000000 -0.000001 -0.188225 -0.000000 -0.000000 -0.000000
  0Zn  1pz       -0.000000 -0.000000 -0.000000  0.066174 -0.019137 -0.069408
  0Zn  1px        0.000000  0.000000 -0.000000 -0.065802  0.022183 -0.068852
  0Zn  1py        0.000000 -0.000000  0.000000  0.029219  0.093297  0.002133
  0Zn  2pz        0.000000  0.000000 -0.000000 -0.190612  0.055125  0.199929
  0Zn  2px       -0.000000 -0.000000  0.000000  0.189543 -0.063896  0.198328
  0Zn  2py       -0.000000  0.000000 -0.000000 -0.084165 -0.268742 -0.006145
  0Zn  3pz       -0.000000 -0.000000 -0.000000  0.003576 -0.001034 -0.003750
  0Zn  3px        0.000000  0.000000 -0.000000 -0.003555  0.001199 -0.003720
  0Zn  3py        0.000000 -0.000000 -0.000000  0.001579  0.005041  0.000115
  0Zn  1dz2      -0.172098 -0.107562  0.000000  0.000000  0.000000  0.000000
  0Zn  1dxz       0.325542  0.385594 -0.000002 -0.000000 -0.000000 -0.000000
  0Zn  1dyz       0.304066 -0.331501  0.000001  0.000000 -0.000000 -0.000000
  0Zn  1dx2y2    -0.314980 -0.176252  0.000000  0.000000 -0.000000  0.000000
  0Zn  1dxy      -0.294252  0.335616 -0.000001  0.000000  0.000000  0.000000
  0Zn  2dz2      -0.104822 -0.065514  0.000000  0.000000  0.000000  0.000000
  0Zn  2dxz       0.198283  0.234859 -0.000002 -0.000000  0.000000 -0.000000
  0Zn  2dyz       0.185202 -0.201912  0.000000  0.000000  0.000000 -0.000000
  0Zn  2dx2y2    -0.191849 -0.107352  0.000000 -0.000000 -0.000000 -0.000000
  0Zn  2dxy      -0.179224  0.204419 -0.000000  0.000000 -0.000000  0.000000
  0Zn  3dz2      -0.058081 -0.036301  0.000000 -0.000000 -0.000000  0.000000
  0Zn  3dxz       0.109866  0.130133 -0.000000  0.000000 -0.000000  0.000000
  0Zn  3dyz       0.102618 -0.111877  0.000000 -0.000000 -0.000000  0.000000
  0Zn  3dx2y2    -0.106302 -0.059483  0.000000  0.000000  0.000000  0.000000
  0Zn  3dxy      -0.099306  0.113266 -0.000000 -0.000000  0.000000 -0.000000
  0Zn  4pz       -0.000000  0.000000  0.000000  0.679626 -0.196545 -0.712843
  0Zn  4px       -0.000000 -0.000000 -0.000000 -0.675813  0.227822 -0.707136
  0Zn  4py        0.000000 -0.000000  0.000000  0.300088  0.958193  0.021911
                     18        19        20        21        22        23   
                   0.15931   0.86932   0.86932   0.86932   0.86933   0.86933
                   0.00000   0.00000   0.00000   0.00000   0.00000   0.00000
                  --------  --------  --------  --------  --------  --------
  0Zn  1s         0.021966 -0.000000 -0.000000 -0.000000 -0.000000  0.000000
  0Zn  2s        -0.071957  0.000000  0.000000  0.000000  0.000000 -0.000000
  0Zn  3s         0.163087 -0.000000 -0.000000 -0.000000 -0.000000  0.000000
  0Zn  4s         0.256423  0.000000  0.000000  0.000000  0.000000 -0.000000
  0Zn  5s        -1.755221  0.000000  0.000000  0.000000  0.000000 -0.000000
  0Zn  6s         1.805684 -0.000000 -0.000000 -0.000000 -0.000000  0.000000
  0Zn  1pz        0.000000 -0.000000 -0.000000 -0.000000 -0.000000  0.000000
  0Zn  1px       -0.000000  0.000000 -0.000000 -0.000000  0.000000 -0.000000
  0Zn  1py        0.000000 -0.000000 -0.000000 -0.000000  0.000000 -0.000000
  0Zn  2pz       -0.000000  0.000000  0.000000  0.000000  0.000000 -0.000000
  0Zn  2px        0.000000 -0.000000  0.000000  0.000000 -0.000000  0.000000
  0Zn  2py       -0.000000  0.000000  0.000000  0.000000 -0.000000  0.000000
  0Zn  3pz        0.000000 -0.000000 -0.000000 -0.000000 -0.000000  0.000000
  0Zn  3px       -0.000000  0.000000 -0.000000 -0.000000  0.000000 -0.000000
  0Zn  3py        0.000000 -0.000000 -0.000000 -0.000000  0.000000 -0.000000
  0Zn  1dz2      -0.000000  0.165053  0.304991 -0.013842 -0.052778  0.027575
  0Zn  1dxz       0.000000 -0.109439 -0.000970 -0.111761 -0.315429  0.005964
  0Zn  1dyz      -0.000000 -0.009949  0.023758  0.234837 -0.084499 -0.247078
  0Zn  1dx2y2    -0.000000  0.290887 -0.173182 -0.019572 -0.093739 -0.014910
  0Zn  1dxy       0.000000  0.008116  0.020558 -0.236191  0.076102 -0.248865
  0Zn  2dz2      -0.000000  0.143906  0.265914 -0.012068 -0.046016  0.024042
  0Zn  2dxz       0.000000 -0.095417 -0.000845 -0.097442 -0.275014  0.005200
  0Zn  2dyz      -0.000000 -0.008674  0.020714  0.204749 -0.073673 -0.215421
  0Zn  2dx2y2    -0.000000  0.253617 -0.150993 -0.017064 -0.081729 -0.012999
  0Zn  2dxy       0.000000  0.007076  0.017924 -0.205928  0.066351 -0.216979
  0Zn  3dz2      -0.000000 -0.502547 -0.928623  0.042144  0.160695 -0.083958
  0Zn  3dxz       0.000000  0.333216  0.002952  0.340286  0.960404 -0.018158
  0Zn  3dyz      -0.000000  0.030292 -0.072338 -0.715022  0.257279  0.752292
  0Zn  3dx2y2    -0.000000 -0.885679  0.527297  0.059592  0.285413  0.045396
  0Zn  3dxy       0.000000 -0.024711 -0.062594  0.719142 -0.231710  0.757733
  0Zn  4pz        0.000000 -0.000000  0.000000 -0.000000 -0.000000  0.000000
  0Zn  4px       -0.000000  0.000000  0.000000 -0.000000  0.000000 -0.000000
  0Zn  4py        0.000000 -0.000000 -0.000000 -0.000000  0.000000 -0.000000
                     24        25        26        27        28        29   
                   2.00952   2.00952   2.00952   3.20811   4.34403   4.34403
                   0.00000   0.00000   0.00000   0.00000   0.00000   0.00000
                  --------  --------  --------  --------  --------  --------
  0Zn  1s         0.000000  0.000000  0.000000 -0.166040 -0.000000 -0.000000
  0Zn  2s        -0.000000  0.000000 -0.000000 -0.070790  0.000000  0.000000
  0Zn  3s         0.000000  0.000000  0.000000 -2.326761 -0.000000 -0.000000
  0Zn  4s        -0.000000 -0.000000 -0.000000  2.822868 -0.000000 -0.000000
  0Zn  5s        -0.000000 -0.000000 -0.000000 -1.194751  0.000000  0.000000
  0Zn  6s         0.000000  0.000000  0.000000  0.551065 -0.000000 -0.000000
  0Zn  1pz        0.227610  0.062039 -0.217223 -0.000000 -0.000000 -0.000000
  0Zn  1px        0.225788 -0.072561  0.215860  0.000000  0.000000 -0.000000
  0Zn  1py       -0.007391 -0.306149 -0.095180 -0.000000  0.000000 -0.000000
  0Zn  2pz       -0.832717 -0.226971  0.794718  0.000000  0.000000  0.000000
  0Zn  2px       -0.826052  0.265465 -0.789731 -0.000000 -0.000000  0.000000
  0Zn  2py        0.027039  1.120055  0.348218  0.000000 -0.000000  0.000000
  0Zn  3pz        1.082773  0.295128 -1.033365 -0.000000 -0.000000 -0.000000
  0Zn  3px        1.074107 -0.345181  1.026881  0.000000  0.000000 -0.000000
  0Zn  3py       -0.035159 -1.456396 -0.452785 -0.000000  0.000000  0.000000
  0Zn  1dz2      -0.000000 -0.000000 -0.000000  0.000000 -0.395379 -0.589975
  0Zn  1dxz       0.000000 -0.000000 -0.000000 -0.000002 -0.466180 -0.007166
  0Zn  1dyz       0.000000  0.000000  0.000000  0.000000 -0.088623  0.452966
  0Zn  1dx2y2     0.000000 -0.000000  0.000000  0.000000 -0.693198  0.339399
  0Zn  1dxy      -0.000000 -0.000000 -0.000000 -0.000000  0.086560  0.448360
  0Zn  2dz2       0.000000  0.000000  0.000000  0.000000  0.573986  0.856487
  0Zn  2dxz      -0.000000  0.000000  0.000000 -0.000001  0.676770  0.010402
  0Zn  2dyz      -0.000000  0.000000  0.000000  0.000000  0.128657 -0.657587
  0Zn  2dx2y2    -0.000000  0.000000 -0.000000  0.000000  1.006340 -0.492718
  0Zn  2dxy       0.000000  0.000000  0.000000 -0.000000 -0.125663 -0.650900
  0Zn  3dz2      -0.000000  0.000000  0.000000  0.000000 -0.264628 -0.394871
  0Zn  3dxz       0.000000  0.000000 -0.000000 -0.000001 -0.312015 -0.004796
  0Zn  3dyz      -0.000000  0.000000  0.000000  0.000000 -0.059316  0.303171
  0Zn  3dx2y2     0.000000 -0.000000  0.000000  0.000000 -0.463958  0.227160
  0Zn  3dxy       0.000000 -0.000000 -0.000000 -0.000000  0.057935  0.300088
  0Zn  4pz       -0.422951 -0.115282  0.403651 -0.000000  0.000000  0.000000
  0Zn  4px       -0.419566  0.134834 -0.401118  0.000000 -0.000000  0.000000
  0Zn  4py        0.013734  0.568895  0.176866  0.000000 -0.000000 -0.000000
                     30        31        32   
                   4.34403   4.34403   4.34403
                   0.00000   0.00000   0.00000
                  --------  --------  --------
  0Zn  1s        -0.000000  0.000000  0.000000
  0Zn  2s         0.000000 -0.000000 -0.000000
  0Zn  3s        -0.000000  0.000000  0.000000
  0Zn  4s        -0.000000  0.000000  0.000001
  0Zn  5s         0.000000 -0.000000 -0.000000
  0Zn  6s        -0.000000  0.000000  0.000000
  0Zn  1pz        0.000000 -0.000000 -0.000000
  0Zn  1px        0.000000 -0.000000  0.000000
  0Zn  1py       -0.000000  0.000000 -0.000000
  0Zn  2pz       -0.000000  0.000000  0.000000
  0Zn  2px       -0.000000  0.000000 -0.000000
  0Zn  2py        0.000000 -0.000000  0.000000
  0Zn  3pz        0.000000 -0.000000 -0.000000
  0Zn  3px        0.000000 -0.000000  0.000000
  0Zn  3py       -0.000000  0.000000 -0.000000
  0Zn  1dz2       0.555818 -0.224442 -0.076253
  0Zn  1dxz      -0.007653  0.665930  0.456750
  0Zn  1dyz       0.475696  0.335046 -0.563864
  0Zn  1dx2y2    -0.311907 -0.402438 -0.120665
  0Zn  1dxy       0.486777 -0.318540  0.567960
  0Zn  2dz2      -0.806903  0.325831  0.110699
  0Zn  2dxz       0.011110 -0.966756 -0.663082
  0Zn  2dyz      -0.690585 -0.486399  0.818583
  0Zn  2dx2y2     0.452807  0.584235  0.175174
  0Zn  2dxy      -0.706672  0.462436 -0.824529
  0Zn  3dz2       0.372010 -0.150219 -0.051036
  0Zn  3dxz      -0.005122  0.445708  0.305704
  0Zn  3dyz       0.318384  0.224247 -0.377395
  0Zn  3dx2y2    -0.208760 -0.269352 -0.080761
  0Zn  3dxy       0.325801 -0.213199  0.380136
  0Zn  4pz       -0.000000  0.000000 -0.000000
  0Zn  4px       -0.000000  0.000000 -0.000000
  0Zn  4py        0.000000  0.000000 -0.000000



                    ********************************
                    * MULLIKEN POPULATION ANALYSIS *
                    ********************************

-----------------------
MULLIKEN ATOMIC CHARGES
-----------------------
   0 Zn:    2.000000
Sum of atomic charges:    2.0000000

--------------------------------
MULLIKEN REDUCED ORBITAL CHARGES
--------------------------------
  0 Zns       :     6.000000  s :     6.000000
      pz      :     4.000000  p :    12.000000
      px      :     4.000000
      py      :     4.000000
      dz2     :     2.000000  d :    10.000000
      dxz     :     2.000000
      dyz     :     2.000000
      dx2y2   :     2.000000
      dxy     :     2.000000



                     *******************************
                     * LOEWDIN POPULATION ANALYSIS *
                     *******************************

----------------------
LOEWDIN ATOMIC CHARGES
----------------------
   0 Zn:    2.000000

-------------------------------
LOEWDIN REDUCED ORBITAL CHARGES
-------------------------------
  0 Zns       :     6.000000  s :     6.000000
      pz      :     4.000000  p :    12.000000
      px      :     4.000000
      py      :     4.000000
      dz2     :     2.000000  d :    10.000000
      dxz     :     2.000000
      dyz     :     2.000000
      dx2y2   :     2.000000
      dxy     :     2.000000



                      *****************************
                      * MAYER POPULATION ANALYSIS *
                      *****************************

  NA   - Mulliken gross atomic population
  ZA   - Total nuclear charge
  QA   - Mulliken gross atomic charge
  VA   - Mayer's total valence
  BVA  - Mayer's bonded valence
  FA   - Mayer's free valence

  ATOM       NA         ZA         QA         VA         BVA        FA
  0 Zn    28.0000    30.0000     2.0000     0.0000     0.0000     0.0000

  Mayer bond orders larger than 0.100000
  => no bond orders to print


Warning: MO coefficients are modified such that the real solid harmonic m components
have the correct order within each shell (0, +1, -1, +2, -2, ...) and all s orbitals
come before all p orbitals etc. (with increasing orbital energy within each block of given angular momentum).

--------------------------
ATOM BASIS FOR ELEMENT Zn
--------------------------
 NewGTO Zn
 S 17
    1     405924.310279999976         0.000236919051
    2      60846.955735000003         0.001837127828
    3      13847.343091999999         0.009555438709
    4       3919.615855100000         0.038867845244
    5       1276.359416700000         0.126734480094
    6        458.672544350000         0.301675716662
    7        178.287252460000         0.433757858680
    8         70.612192837000         0.230320356749
    9        443.880779500000        -0.000187319699
   10        137.558752670000        -0.000887828469
   11         22.268083479000         0.004159491080
   12          9.521731060600         0.003953768965
   13         14.874114065000         0.001122744019
   14          2.464751761200        -0.003483083118
   15          1.011327223800         0.001953508771
   16          0.149198520900        -0.000524803219
   17          0.051441873000         0.000237213479
 S 17
    1     405924.310279999976         0.000076134570
    2      60846.955735000003         0.000590365934
    3      13847.343091999999         0.003070665750
    4       3919.615855100000         0.012490285878
    5       1276.359416700000         0.040726463663
    6        458.672544350000         0.096944297271
    7        178.287252460000         0.139389246376
    8         70.612192837000         0.074014061785
    9        443.880779500000         0.026089094805
   10        137.558752670000         0.123652991109
   11         22.268083479000        -0.579316310852
   12          9.521731060600        -0.550664205456
   13         14.874114065000         0.016541339260
   14          2.464751761200        -0.051316113514
   15          1.011327223800         0.016104843863
   16          0.149198520900        -0.003552812689
   17          0.051441873000         0.001582752075
 S 17
    1     405924.310279999976         0.000028727311
    2      60846.955735000003         0.000222758541
    3      13847.343091999999         0.001158632269
    4       3919.615855100000         0.004712869928
    5       1276.359416700000         0.015367024241
    6        458.672544350000         0.036579295921
    7        178.287252460000         0.052594743940
    8         70.612192837000         0.027927194735
    9        443.880779500000         0.011824037771
   10        137.558752670000         0.056041715833
   11         22.268083479000        -0.262556366643
   12          9.521731060600        -0.249570727280
   13         14.874114065000        -0.238718907203
   14          2.464751761200         0.740576464076
   15          1.011327223800         0.479091108704
   16          0.149198520900         0.016048685935
   17          0.051441873000        -0.005555705599
 S 17
    1     405924.310279999976         0.000008443955
    2      60846.955735000003         0.000065476476
    3      13847.343091999999         0.000340562286
    4       3919.615855100000         0.001385276244
    5       1276.359416700000         0.004516902427
    6        458.672544350000         0.010751926199
    7        178.287252460000         0.015459422908
    8         70.612192837000         0.008208773001
    9        443.880779500000         0.002584463068
   10        137.558752670000         0.012249431846
   11         22.268083479000        -0.057388791028
   12          9.521731060600        -0.054550428534
   13         14.874114065000        -0.107549681854
   14          2.464751761200         0.333650836597
   15          1.011327223800         0.232967104867
   16          0.149198520900        -0.945909892664
   17          0.051441873000        -0.188224548222
 S 17
    1     405924.310279999976         0.000005216980
    2      60846.955735000003         0.000040453732
    3      13847.343091999999         0.000210411684
    4       3919.615855100000         0.000855873710
    5       1276.359416700000         0.002790705506
    6        458.672544350000         0.006642928451
    7        178.287252460000         0.009551389989
    8         70.612192837000         0.005071676526
    9        443.880779500000         0.001809038624
   10        137.558752670000         0.008574196941
   11         22.268083479000        -0.040170254646
   12          9.521731060600        -0.038183494825
   13         14.874114065000        -0.061628616199
   14          2.464751761200         0.191190145790
   15          1.011327223800         0.256422907375
   16          0.149198520900        -1.755220970455
   17          0.051441873000         1.805684494634
 S 17
    1     405924.310279999976        -0.000039434088
    2      60846.955735000003        -0.000305781486
    3      13847.343091999999        -0.001590458867
    4       3919.615855100000        -0.006469374247
    5       1276.359416700000        -0.021094371879
    6        458.672544350000        -0.050212536867
    7        178.287252460000        -0.072197002501
    8         70.612192837000        -0.038335765081
    9        443.880779500000         0.001779708636
   10        137.558752670000         0.008435183275
   11         22.268083479000        -0.039518973319
   12          9.521731060600        -0.037564424885
   13         14.874114065000         0.879256972760
   14          2.464751761200        -2.727714480310
   15          1.011327223800         2.822868072963
   16          0.149198520900        -1.194751186754
   17          0.051441873000         0.551064557565
 P 11
    1       2205.350853400000         0.002618418177
    2        522.353006990000         0.021335272930
    3        167.730555420000         0.100847479603
    4         62.670045373000         0.292750052541
    5         25.109749456000         0.474759406708
    6         10.225142681000         0.275997530705
    7         40.713442521000        -0.000515331871
    8          5.624709069600         0.009537135224
    9          2.227994911600         0.016402426805
   10          0.833547416900        -0.005596044373
   11          0.162455000000         0.001083366466
 P 11
    1       2205.350853400000         0.001022018920
    2        522.353006990000         0.008327566919
    3        167.730555420000         0.039362708776
    4         62.670045373000         0.114265969837
    5         25.109749456000         0.185307717541
    6         10.225142681000         0.107727138713
    7         40.713442521000         0.018549508424
    8          5.624709069600        -0.343291731332
    9          2.227994911600        -0.590409736653
   10          0.833547416900        -0.258858058243
   11          0.162455000000        -0.005382143948
 P 11
    1       2205.350853400000         0.000258422017
    2        522.353006990000         0.002105662232
    3        167.730555420000         0.009953035505
    4         62.670045373000         0.028892657292
    5         25.109749456000         0.046855878300
    6         10.225142681000         0.027239284840
    7         40.713442521000         0.005945184525
    8          5.624709069600        -0.110026241243
    9          2.227994911600        -0.189228455532
   10          0.833547416900         0.005283702331
   11          0.162455000000         1.004323865702
 P 11
    1       2205.350853400000         0.000847466750
    2        522.353006990000         0.006905289070
    3        167.730555420000         0.032639891740
    4         62.670045373000         0.094750310661
    5         25.109749456000         0.153658729980
    6         10.225142681000         0.089328256474
    7         40.713442521000         0.024762774350
    8          5.624709069600        -0.458279296946
    9          2.227994911600        -0.788170917993
   10          0.833547416900         1.525562030744
   11          0.162455000000        -0.595912237809
 D 6
    1         88.554315311000         0.012902490841
    2         25.721525557000         0.080481860822
    3          9.127836762400         0.248269344422
    4          3.431236406400         0.409437018797
    5          1.230892064500         0.391832148626
    6          0.390318451100         0.217108035356
 D 6
    1         88.554315311000         0.007062599913
    2         25.721525557000         0.044054376029
    3          9.127836762400         0.135898337139
    4          3.431236406400         0.224118729388
    5          1.230892064500         0.307018052539
    6          0.390318451100        -1.072166971263
 D 6
    1         88.554315311000         0.018702221475
    2         25.721525557000         0.116658837770
    3          9.127836762400         0.359867588527
    4          3.431236406400         0.593480894515
    5          1.230892064500        -1.353714293265
    6          0.390318451100         0.624109624284
 end
-------
TIMINGS
-------

Total SCF time: 0 days 0 hours 0 min 12 sec 

Total time                  ....      12.571 sec
Sum of individual times     ....      10.786 sec  ( 85.8%)

SCF preparation             ....       0.384 sec  (  3.1%)
Fock matrix formation       ....       8.482 sec  ( 67.5%)
  Startup                   ....       0.147 sec  (  1.7% of F)
  Split-RI-J                ....       0.389 sec  (  4.6% of F)
  XC integration            ....       6.616 sec  ( 78.0% of F)
    XC Preparation          ....       0.000 sec  (  0.0% of XC)
    Basis function eval.    ....       0.110 sec  (  1.7% of XC)
    Density eval.           ....       0.048 sec  (  0.7% of XC)
    XC-Functional eval.     ....       0.093 sec  (  1.4% of XC)
    XC-Potential eval.      ....       0.055 sec  (  0.8% of XC)
  CPCM terms                ....       0.788 sec  (  9.3% of F)
Diagonalization             ....       0.000 sec  (  0.0%)
Density matrix formation    ....       0.497 sec  (  4.0%)
Total Energy calculation    ....       0.160 sec  (  1.3%)
Population analysis         ....       0.156 sec  (  1.2%)
Orbital Transformation      ....       0.065 sec  (  0.5%)
Orbital Orthonormalization  ....       0.000 sec  (  0.0%)
DIIS solution               ....       0.755 sec  (  6.0%)
SOSCF solution              ....       0.287 sec  (  2.3%)
Finished LeanSCF after  12.8 sec

Maximum memory used throughout the entire LEANSCF-calculation: 5.1 MB

------------------------------------------------------------------------------
                         ORCA PROPERTY INTEGRAL CALCULATIONS
------------------------------------------------------------------------------

GBWName                                   ... zn.gbw
Number of atoms                           ...      1
Number of basis functions                 ...     33
Max core memory                           ...   4096 MB

Dipole integrals                          ... YES
Quadrupole integrals                      ...  NO
Linear momentum integrals                 ...  NO
Angular momentum integrals                ...  NO
Higher moments length integrals           ...  NO
Higher moments velocity integrals         ...  NO
Kinetic energy integrals                  ...  NO
GIAO right hand sides                     ...  NO
GIAO dipole derivative integrals          ...  NO
SOC integrals                             ...  NO
EPR diamagnetic integrals (GIAO)          ...  NO
EPR gauge integrals                       ...  NO
Field gradient integrals                  ...  NO (   0 nuclei)
Spin-dipole/Fermi contact integrals       ...  NO (   0 nuclei)
Contact density integrals                 ...  NO (   0 nuclei)
Nucleus-orbit integrals                   ...  NO (   0 nuclei)
Geometric perturbations                   ... YES (   1 nuclei)

Choice of electric origin   ... Center of mass
Position of electric origin ... (  1.3814,  1.7291,  0.0000) 
Choice of magnetic origin   ... GIAO
Position of magnetic origin ... (  0.0000,  0.0000,  0.0000) 

Calculating integrals                     ... Electric Dipole (Length)     done (  0.0 sec)
Calculating integrals                     ... Geometrical perturbation right hand sides

-----------------------
GEOMETRIC PERTURBATIONS (1 nuclei)
-----------------------

MaxCore                            ...   4096 MB
Number of batches                  ...      1

BATCH   0: Atoms    0 -    0 (  3 perturbations)
   => H(core) and overlap derivative integrals     ... done (     0.1 sec)
   => Making and storing internal U-coefficients   ... done (     0.1 sec)
   => RI-J derivative integrals                    ... done (     0.2 sec)
   => RI-J response operators                      ... done (     0.0 sec)
   => XC derivative integrals                      ... done (     0.5 sec)
   => XC response operators                        ... done (     0.5 sec)
   => CPCM derivative integrals                    ... done (     0.5 sec)
   => CPCM response operators                      ... done (     0.5 sec)
   => Completing and storing right hand sides      ... done (     0.0 sec)
   => Total time for right hand sides =   4.5 sec

  geometrical perturbations done (  4.6 sec)

Property integrals calculated in   4.6 sec

Maximum memory used throughout the entire PROPINT-calculation: 9.8 MB


-------------------------------------------------------------------------------
                          DFT DISPERSION CORRECTION                            
                                                                               
                              DFTD3 V3.1  Rev 1                                
                          USING Becke-Johnson damping                          
-------------------------------------------------------------------------------
The B97-3c composite method is recognized
Using three-body term ABC
Active option DFTDOPT                   ...         4   

molecular C6(AA) [au] = 340.521234 


            DFT-D V3
 parameters
 s6 scaling factor         :     1.0000 
 a1 scaling factor         :     0.3700 
 s8 scaling factor         :     1.5000 
 a2 scaling factor         :     4.1000 
 Damping factor alpha9(ATM):    16.0000 
 ad hoc parameters k1-k3   :    16.0000     1.3333    -4.0000 

 Edisp/kcal,au: -0.000000000000  -0.000000000000 
 E6   /kcal   :  -0.000000000 
 E8   /kcal   :  -0.000000000 
 E6(ABC)      :  -0.000000000 
 % E8         :          -nan 
 % E6(ABC)    :          -nan 

-------------------------   ----------------
Dispersion correction            0.000000000
-------------------------   ----------------

------------------   -----------------
SRB correction             0.000000000
------------------   -----------------

-------------------------   --------------------
FINAL SINGLE POINT ENERGY     -1779.596809026267
-------------------------   --------------------

------------------------------------------------------------------------------
                            ORCA SCF RESPONSE CALCULATION
------------------------------------------------------------------------------

GBWName                                 ... zn.gbw
Number of atoms                         ...      1
Number of basis functions               ...     33
Max core memory                         ...   4096 MB

Electric field perturbation             ...  NO
Quadrupolar field perturbation          ...  NO
Magnetic field perturbation (no GIAO)   ...  NO
Magnetic field perturbation (with GIAO) ...  NO
Linear momentum (velocity) perturbation ...  NO
Spin-orbit coupling perturbation        ...  NO
Choice of electric origin               ... Center of mass
Position of electric origin             ...     1.381428     1.729081     0.000000
Choice of magnetic origin               ... GIAO
Position of magnetic origin             ...     0.000000     0.000000     0.000000
Nuclear geometric perturbations         ... YES (   3 perturbations)
Nucleus-orbit perturbations             ...  NO (   0 perturbations)
Spin-dipole/Fermi contact perturbations ...  NO (   0 perturbations)

Total number of real perturbations      ...      3
Total number of imaginary perturbations ...      0
Total number of triplet perturbations   ...      0
Total number of SOC perturbations       ...      0


                                **********************
                                * REAL PERTURBATIONS *
                                **********************



-------------------
SHARK CP-SCF DRIVER
-------------------

Dimension of the orbital basis          ...     33
Dimension of the CPSCF-problem          ...    266
Number of operators                     ...      1
Max. number of iterations               ...    128
Convergence Tolerance                   ... 1.0e-03
Number of perturbations                 ...      3
Perturbation type                       ... REAL

----------------------------
POPLE LINEAR EQUATION SOLVER
----------------------------

  ITERATION   0:   ||err||_max =   4.9624e-16 (   0.6 sec   3/  3 done)

CP-SCF equations solved in   0.8 sec
Response densities calculated in   0.0 sec

Maximum memory used throughout the entire SCFRESP-calculation: 5.4 MB

------------------------------------------------------------------------------
                              ORCA PROPERTY CALCULATIONS
------------------------------------------------------------------------------

GBWName                                 ... zn.gbw
Number of atoms                         ...      1
Number of basis functions               ...     33
Max core memory                         ...   4096 MB

Electric properties:
Dipole moment                           ... YES
Quadrupole moment                       ...  NO
Static polarizability (Dipole/Dipole)   ...  NO
Static polarizability (Dipole/Quad.)    ...  NO
Static polarizability (Quad./Quad.)     ...  NO
Static polarizability (Velocity)        ...  NO
Static hyperpolarizability              ...  NO

Atomic electric properties:
Dipole moment                           ...  NO
Quadrupole moment                       ...  NO
Static polarizability                   ...  NO

Choice of electric origin               ... Center of mass
Position of electric origin             ...     1.381428     1.729081     0.000000

General magnetic properties:
Magnetizability                         ...  NO

EPR properties:
g-Tensor (aka g-matrix)                 ...  NO
Zero-Field splitting spin-orbit         ...  NO
Zero-field splitting spin-spin          ...  NO
Hyperfine couplings                     ...  NO (   0 nuclei)
Quadrupole couplings                    ...  NO (   0 nuclei)
Contact density                         ...  NO (   0 nuclei)

NMR properties:
Chemical shifts                         ...  NO (   0 nuclei)
Spin-rotation constants                 ...  NO (   0 nuclei)
Spin-spin couplings                     ...  NO (   0 nuclei,    0 pairs)

Choice of magnetic origin               ... GIAO
Position of magnetic origin             ...     0.000000     0.000000     0.000000

Properties with geometric perturbations:
SCF Hessian                             ... YES
IR spectrum                             ... YES
VCD spectrum                            ...  NO
X-ray spectroscopy properties:
SCF XES/XAS/RIXS spectra                ...  NO

SCF SOC stabilization energy            ...  NO
Diagonal Born-Oppenheimer correction    ...  NO

-------------
DIPOLE MOMENT
-------------

Method             : SCF
Type of density    : Electron Density
Multiplicity       :   1
Irrep              :   0
Energy             : -1779.5968090262670103 Eh
Basis              : AO
                                X                 Y                 Z
Electronic contribution:      0.000000000       0.000000000      -0.000000000
Nuclear contribution   :      0.000000000      -0.000000000       0.000000000
                        -----------------------------------------
Total Dipole Moment    :      0.000000000       0.000000000      -0.000000000
                        -----------------------------------------
Magnitude (a.u.)       :      0.000000000
Magnitude (Debye)      :      0.000000001



--------------------
Rotational spectrum 
--------------------
 
Rotational constants in cm-1:             0.000000             0.000000             0.000000 
Rotational constants in MHz :             0.000000             0.000000             0.000000 

Dipole components along the rotational axes: 
x,y,z [a.u.] :     0.000000     0.000000    -0.000000 
x,y,z [Debye]:     0.000000     0.000000    -0.000000 

 

Dipole moment calculation done in   0.1 sec 

-----------
SCF HESSIAN
-----------

Occupied/Occupied contributions to the Hessian:
   => Occupied/Occupied contributions              ... done (  0.0 sec)
Perturbed density contributions to the Hessian:
   => Perturbed density contributions              ... done (  0.0 sec)
Explicit contributions to the Hessian:
   => Nuclear repulsion Hessian                    ... done (  0.0 sec)
   => HCore and overlap Hessian                    ... done (  0.0 sec)
   => RI-J Hessian                                 ... done (  0.4 sec)
   => XC-Hessian                                   ... done (  0.9 sec)
   => CPCM-Hessian                                 ... done (  0.2 sec)
   => Van der Waals-Hessian                        ... done (  0.2 sec)
   => GCP-Hessian                                  ... done (  0.0 sec)
   => Explicit contributions done
Dipole derivatives                                 ... done (  0.0 sec)
Mass weighting the Hessian           ... done
Calculating normal modes             ... done
Scaling frequencies                  ... done

-----------------------
VIBRATIONAL FREQUENCIES
-----------------------

Scaling factor for frequencies =  1.000000000  (already applied!)

     0:       0.00 cm**-1
     1:       0.00 cm**-1
     2:       0.00 cm**-1


------------
NORMAL MODES
------------

These modes are the Cartesian displacements weighted by the diagonal matrix
M(i,i)=1/sqrt(m[i]) where m[i] is the mass of the displaced atom
Thus, these vectors are normalized but *not* orthogonal

                  0          1          2    
      0       0.000000   0.000000   0.000000
      1       0.000000   0.000000   0.000000
      2       0.000000   0.000000   0.000000


-----------
IR SPECTRUM
-----------

 Mode   freq       eps      Int      T**2         TX        TY        TZ
       cm**-1   L/(mol*cm) km/mol    a.u.
----------------------------------------------------------------------------

* The epsilon (eps) is given for a Dirac delta lineshape.
** The dipole moment derivative (T) already includes vibrational overlap.

The total number of vibrations considered is 0


--------------------------
THERMOCHEMISTRY AT 298.15K
--------------------------

Temperature         ...   298.15 K
Pressure            ...     1.00 atm
Total Mass          ...    65.38 AMU
Quasi RRHO          ...     True
Cut-Off Frequency   ...     1.00 cm^-1
The molecule is recognized as being linear

Throughout the following assumptions are being made:
  (1) The electronic state is orbitally nondegenerate
  (2) There are no thermally accessible electronically excited states
  (3) Hindered rotations indicated by low frequency modes are not
      treated as such but are treated as vibrations and this may
      cause some error
  (4) All equations used are the standard statistical mechanics
      equations for an ideal gas
  (5) All vibrations are strictly harmonic


------------
INNER ENERGY
------------

The inner energy is: U= E(el) + E(ZPE) + E(vib) + E(rot) + E(trans)
    E(el)   - is the total energy from the electronic structure calculation
              = E(kin-el) + E(nuc-el) + E(el-el) + E(nuc-nuc)
    E(ZPE)  - the the zero temperature vibrational energy from the frequency calculation
    E(vib)  - the the finite temperature correction to E(ZPE) due to population
              of excited vibrational states
    E(rot)  - is the rotational thermal energy
    E(trans)- is the translational thermal energy

Summary of contributions to the inner energy U:
Electronic energy                ...  -1779.59680903 Eh
Zero point energy                ...      0.00000000 Eh       0.00 kcal/mol
Thermal vibrational correction   ...      0.00000000 Eh       0.00 kcal/mol
Thermal rotational correction    ...      0.00000000 Eh       0.00 kcal/mol
Thermal translational correction ...      0.00141627 Eh       0.89 kcal/mol
-----------------------------------------------------------------------
Total thermal energy                  -1779.59539275 Eh


Summary of corrections to the electronic energy:
(perhaps to be used in another calculation)
Total thermal correction                  0.00141627 Eh       0.89 kcal/mol
Non-thermal (ZPE) correction              0.00000000 Eh       0.00 kcal/mol
-----------------------------------------------------------------------
Total correction                          0.00141627 Eh       0.89 kcal/mol


--------
ENTHALPY
--------

The enthalpy is H = U + kB*T
                kB is Boltzmann's constant
Total thermal energy              ...  -1779.59539275 Eh 
Thermal Enthalpy correction       ...      0.00094421 Eh       0.59 kcal/mol
-----------------------------------------------------------------------
Total Enthalpy                    ...  -1779.59444855 Eh

The Z matrix contains a single non-dummy atom.

Note: Rotational entropy computed according to Herzberg 
Infrared and Raman Spectra, Chapter V,1, Van Nostrand Reinhold, 1945 
Point Group:  Kh, Symmetry Number:   1  
Rotational constants in cm-1:     0.000000     0.000000     0.000000 

Vibrational entropy computed according to the QRRHO of S. Grimme
Chem.Eur.J. 2012 18 9955 using a reference frequency of 100.0 cm-1


-------
ENTROPY
-------

The entropy contributions are T*S = T*(S(el)+S(vib)+S(rot)+S(trans))
     S(el)   - electronic entropy
     S(vib)  - vibrational entropy
     S(rot)  - rotational entropy
     S(trans)- translational entropy
The entropies will be listed as multiplied by the temperature to get
units of energy

Electronic entropy                ...      0.00000000 Eh      0.00 kcal/mol
Vibrational entropy               ...      0.00000000 Eh      0.00 kcal/mol
Rotational entropy                ...      0.00000000 Eh      0.00 kcal/mol
Translational entropy             ...      0.01826939 Eh     11.46 kcal/mol
-----------------------------------------------------------------------
Final entropy term                ...      0.01826939 Eh     11.46 kcal/mol


-------------------
GIBBS FREE ENERGY
-------------------

The Gibbs free energy is G = H - T*S

Total enthalpy                    ...  -1779.59444855 Eh 
Total entropy correction          ...     -0.01826939 Eh    -11.46 kcal/mol
-----------------------------------------------------------------------
Final Gibbs free energy         ...  -1779.61271794 Eh

For completeness - the Gibbs free energy minus the electronic energy
G-E(el)                           ...     -0.01590891 Eh     -9.98 kcal/mol


Maximum memory used throughout the entire PROP-calculation: 29.9 MB

--------------------------------
SUGGESTED CITATIONS FOR THIS RUN
--------------------------------

Below you find a list of papers that are relevant to this ORCA run
We neither can nor want to force you to cite these papers, but we appreciate if you do
You receive ORCA, which is the product of decades of hard work by many enthusiastic individuals, for free
The only thing we kindly ask in return is that you cite our papers,
We deeply appreciate it, if you show your appreciation for ORCA by not just citing the generic ORCA reference.

Please note that relegating all ORCA citations to the supporting information does *not* help us.
SI sections are not indexed - citations you put there will not count into any citation statistics
But we need these citations in order to attract the funding resources that allow us to do what we are doing

Therefore, if you are a happy ORCA user, please consider citing a few of the papers listed below in the main body of your paper

In addition to the list printed below, the program has created the file zn.bibtex that contains the list in bibtex format
You can import this file easily into all common literature databanks and citation aid programs


List of essential papers. We consider these as the minimum necessary citations

  1. Neese, F.
     Software update: the ORCA program system, version 6.0
     WIRES Comput. Molec. Sci. 2025 15(1), e70019
     doi.org/10.1002/wcms.7019

List of papers to cite with high priority. The work reported in these papers was absolutely
necessary for this run to complete.
Our perspective: the developers of density functionals and basis sets usually get cited in chemistry papers
Good! But without the algorithms to do something with them, the functionals or basis sets would not do anything.
Hence, in our opinion, the algorithm design and method developments papers are equally worthy of getting cited

  1. Neese, F.
     An improvement of the resolution of the identity approximation for the formation of the Coulomb matrix
     J. Comp. Chem. 2003 24(14), 1740-1747
     doi.org/10.1002/jcc.10318
  2. Grimme, S.; Antony, J.; Ehrlich, S.; Krieg, H.
     A consistent and accurate ab initio parametrization of density functional dispersion correction (DFT-D) for the 94 elements H-Pu
     J. Chem. Phys. 2010 132 , 154104
     doi.org/10.1063/1.3382344
  3. Grimme, S.; Ehrlich, S.; Goerigk, L.
     Effect of the damping function in dispersion corrected density functional theory
     J. Comput. Chem. 2011 32(7), 1456-1465
     doi.org/10.1002/jcc.21759
  4. Bykov, D.; Petrenko, T.; Izsak, R.; Kossmann, S.; Becker, U.; Valeev, E.; Neese, F.
     Efficient implementation of the analytic second derivatives of Hartree-Fock and hybrid DFT energies: a detailed analysis of different approximations
     Molec. Phys. 2015 113 , 1961-1977
     doi.org/10.1080/00268976.2015.1025114
  5. Garcia-Rates, M.; Neese, F.
     Efficient implementation of the analytical second derivatives of hartree-fock and hybrid DFT energies within the framework of the conductor-like polarizable continuum model
     J. Comput. Chem. 2019 40 , 1816-1828
     doi.org/10.1002/jcc.25833
  6. Garcia-Rates, M.; Neese, F.
     Effect of the Solute Cavity on the Solvation Energy and its Derivatives within the Framework of the Gaussian Charge Scheme
     J. Comput. Chem. 2020 41 , 922-939
     doi.org/10.1002/jcc.26139
  7. Neese, F.
     The SHARK Integral Generation and Digestion System
     J. Comp. Chem. 2022 44(3), 381
     doi.org/10.1002/jcc.26942

List of suggested additional citations. These are papers that are important in the 'surrounding' of 
of this run, or papers that preceded the highly important papers. If you like your results we are grateful for a citation.

  1. Neese, F.
     The ORCA program system
     WIRES Comput. Molec. Sci. 2012 2(1), 73-78
     doi.org/10.1002/wcms.81
  2. Neese, F.
     Software update: the ORCA program system, version 4.0
     WIRES Comput. Molec. Sci. 2018 8(1), 1-6
     doi.org/10.1002/wcms.1327
  3. Neese, F.; Wennmohs, F.; Becker, U.; Riplinger, C.
     The ORCA quantum chemistry program package
     J. Chem. Phys. 2020 152(22), 224108
     doi.org/10.1063/5.0004608
  4. Neese, F.
     Software update: The ORCA program system—Version 5.0
     WIRES Comput. Molec. Sci. 2022 12(1), e1606
     doi.org/10.1002/wcms.1606

List of optional additional citations

  1. Neese, F.
     Approximate second-order SCF convergence for spin unrestricted wavefunctions
     Chem. Phys. Lett. 2000 325(1-3), 93-98
     doi.org/10.1016/s0009-2614(00)00662-x

Timings for individual modules:

Sum of individual times          ...       23.299 sec (=   0.388 min)
Startup calculation              ...        0.958 sec (=   0.016 min)   4.1 %
SCF iterations                   ...       13.269 sec (=   0.221 min)  56.9 %
Property integrals               ...        4.787 sec (=   0.080 min)  20.5 %
SCF Response                     ...        1.780 sec (=   0.030 min)   7.6 %
Property calculations            ...        2.506 sec (=   0.042 min)  10.8 %
                             ****ORCA TERMINATED NORMALLY****
TOTAL RUN TIME: 0 days 0 hours 0 minutes 25 seconds 97 msec
